/*--------------------------------*- C++ -*----------------------------------*\
  =========                 |
  \\      /  F ield         | OpenFOAM: The Open Source CFD Toolbox
   \\    /   O peration     | Website:  https://openfoam.org
    \\  /    A nd           | Version:  7
     \\/     M anipulation  |
\*---------------------------------------------------------------------------*/
FoamFile
{
    version     2.0;
    format      ascii;
    class       volScalarField;
    location    "200";
    object      epsilon;
}
// * * * * * * * * * * * * * * * * * * * * * * * * * * * * * * * * * * * * * //

dimensions      [0 2 -3 0 0 0 0];

internalField   nonuniform List<scalar> 
48900
(
215.669
970.8
838.514
844.073
995.482
1223.36
1417.44
1548.22
1627.13
1674.12
1704.17
1725.47
1742.17
1756.35
1768.73
1779.33
1788.21
1793
20.5229
211.351
289.406
410.669
614.273
875.564
1132.33
1346.58
1511.83
1636.21
1729.91
1801.61
1856.6
1898.75
1930.69
1954.17
1970.14
1978.02
14.6953
38.5896
60.144
79.473
99.8245
124.311
153.366
185.73
219.92
254.897
290.111
325.345
360.485
395.383
429.796
463.356
495.518
525.544
14.6785
18.7122
25.1892
31.492
37.4252
43.231
49.1519
55.2614
61.5156
67.8369
74.1768
80.5163
86.8652
93.2481
99.6897
106.205
112.779
119.382
14.783
15.3127
17.2225
19.597
22.0044
24.3327
26.581
28.7683
30.9025
32.9801
34.9945
36.9408
38.8179
40.6271
42.372
44.0542
45.6723
47.2298
14.8071
14.7488
15.0871
15.8729
16.8399
17.8624
18.8838
19.8827
20.8512
21.7848
22.6808
23.5368
24.3518
25.1251
25.857
26.5466
27.1923
27.7923
14.8118
14.6517
14.5999
14.707
14.9882
15.3642
15.7894
16.2353
16.6856
17.1306
17.5644
17.9832
18.3846
18.7671
19.1296
19.471
19.7892
20.0797
14.8115
14.6426
14.4978
14.4075
14.3898
14.4373
14.5436
14.6848
14.8495
15.0272
15.2115
15.3975
15.5818
15.7619
15.936
16.1026
16.2598
16.4041
14.8111
14.6409
14.4823
14.3415
14.2269
14.1444
14.0954
14.0751
14.0796
14.1019
14.1385
14.1851
14.2382
14.2957
14.3555
14.416
14.4757
14.532
14.8108
14.6394
14.4787
14.3288
14.1909
14.0674
13.9602
13.8699
13.7961
13.7371
13.6912
13.6566
13.631
13.613
13.601
13.5938
13.5902
13.59
14.8107
14.6383
14.4765
14.3247
14.1823
14.0491
13.9253
13.8115
13.7078
13.614
13.5297
13.4543
13.3871
13.3272
13.2738
13.2261
13.1832
13.144
14.8106
14.6376
14.475
14.3223
14.1786
14.0433
13.9158
13.796
13.6837
13.5786
13.4806
13.3894
13.3047
13.2262
13.1533
13.0856
13.0227
12.964
14.8105
14.6371
14.474
14.3207
14.1763
14.0402
13.9117
13.7904
13.6758
13.5676
13.4655
13.3692
13.2784
13.1929
13.1124
13.0365
12.965
12.8975
14.8105
14.6367
14.4732
14.3193
14.1744
14.0377
13.9086
13.7866
13.6712
13.5619
13.4585
13.3604
13.2675
13.1793
13.0958
13.0165
12.9412
12.8697
14.8104
14.6364
14.4725
14.3182
14.1728
14.0357
13.9062
13.7837
13.6678
13.5581
13.454
13.3554
13.2617
13.1728
13.0882
13.0079
12.9314
12.8586
14.8104
14.6361
14.472
14.3174
14.1716
14.0341
13.9042
13.7814
13.6652
13.5551
13.4507
13.3517
13.2577
13.1684
13.0835
13.0028
12.926
12.8529
14.8103
14.636
14.4716
14.3168
14.1708
14.033
13.9028
13.7797
13.6632
13.5529
13.4483
13.349
13.2548
13.1653
13.0803
12.9994
12.9225
12.8493
14.8103
14.6359
14.4714
14.3164
14.1702
14.0322
13.9019
13.7786
13.6619
13.5514
13.4467
13.3473
13.253
13.1634
13.0783
12.9974
12.9204
12.8472
14.8103
14.6358
14.4713
14.3163
14.17
14.032
13.9015
13.7782
13.6615
13.5509
13.4461
13.3467
13.2524
13.1628
13.0777
12.9968
12.9199
12.8467
14.8103
14.6359
14.4714
14.3165
14.1703
14.0324
13.9021
13.7788
13.6622
13.5517
13.447
13.3477
13.2535
13.164
13.079
12.9983
12.9215
12.8485
14.8104
14.636
14.4717
14.317
14.171
14.0333
13.9032
13.7802
13.6638
13.5535
13.449
13.3499
13.2559
13.1666
13.0818
13.0013
12.9248
12.852
14.8104
14.6363
14.4723
14.3178
14.1723
14.0349
13.9052
13.7826
13.6665
13.5567
13.4527
13.3541
13.2607
13.1722
13.0883
13.0088
12.9334
12.862
14.8105
14.6367
14.4731
14.3192
14.1743
14.0377
13.9089
13.7875
13.6733
13.566
13.4654
13.3712
13.283
13.2007
13.1237
13.0518
12.9848
12.9221
14.8106
14.6373
14.4745
14.3216
14.1789
14.0469
13.9265
13.8179
13.7211
13.6356
13.5606
13.495
13.4379
13.3883
13.3452
13.3078
13.2754
13.2475
14.8103
14.6381
14.4777
14.3363
14.2218
14.1406
14.0892
14.0652
14.0642
14.0781
14.1058
14.143
14.1869
14.2358
14.2881
14.3427
14.3986
14.4558
14.8046
14.6393
14.5321
14.5364
14.6448
14.8401
15.0801
15.3453
15.622
15.9026
16.1826
16.4598
16.7324
16.9994
17.2598
17.5132
17.7592
17.9982
14.7565
14.781
15.2356
16.0948
17.0823
18.0823
19.0559
19.9978
20.9145
21.8128
22.697
23.568
24.4247
25.265
26.0866
26.8877
27.6675
28.4262
14.6506
16.6902
20.452
24.0939
27.3593
30.3805
33.3334
36.3497
39.4978
42.7888
46.2002
49.6933
53.2283
56.7706
60.2938
63.78
67.2185
70.6049
25.2543
36.7581
52.7193
64.3176
75.4382
88.886
105.668
126.004
149.274
174.453
200.497
226.549
252.011
276.525
299.907
322.1
343.114
362.996
660.187
256.967
290.764
361.602
482.63
656.665
858.896
1058.03
1231.45
1370.34
1475.8
1553.43
1609.63
1649.99
1678.81
1699.25
1713.58
1723.41
4.99457
3.16641
6.07665
8.38761
10.2769
11.913
13.4632
15.1775
17.1747
19.6206
22.6689
26.4111
30.8961
36.083
41.8829
48.1627
54.7491
61.5031
68.2727
74.9677
81.5036
87.82
93.9327
99.8441
105.565
111.161
116.637
121.986
127.157
132.05
136.502
140.304
143.246
145.23
146.133
145.854
144.408
141.894
139.008
138.386
140.869
145.968
150.791
651.256
148.739
147.152
148.419
149.508
152.652
153.867
147.27
153.943
152.654
156.422
153.468
671.291
685.762
705.755
728.551
752.408
777.042
802.322
828.27
854.938
882.355
910.563
939.607
969.518
1000.33
1032.07
1064.73
1098.34
1132.88
1168.43
1205.03
1242.41
1280.64
1319.92
1359.87
1400.59
1442.07
1484.02
1526.54
1569.29
1612.36
1655.57
1698.57
1741.29
1783.71
1825.72
1866.49
1905.96
1943.73
1979.48
2013.25
2045.45
2076.19
2105.15
2131.98
2156.36
2178.1
2196.92
2212.92
2225.6
2234.48
2238.46
2241.27
2238.34
2230.71
2218.26
2200.91
2178.29
2150.64
2117.23
2078.28
2033.87
1983.96
1928.78
1868.33
1803.15
1735.83
1671.49
1618.58
1586.64
1612.85
1826.57
1981.2
1862.73
1797.92
1745.78
1674.99
1598.75
1502.18
1396.67
1294.88
1234.12
1191
1032.02
1448.62
1169.57
220.583
209.052
222.326
217.272
213.913
213.183
214.658
212.962
209.003
218.519
221.762
221.102
216.625
211.009
205.089
199.217
193.525
188.089
182.936
178.149
173.618
169.409
165.549
161.973
158.692
155.671
152.925
150.388
148.086
145.978
144.044
142.265
140.624
139.1
137.676
136.337
135.055
133.785
132.545
131.521
16.0299
5.12218
5.25279
5.81657
6.59125
7.56224
8.76558
10.2538
12.0767
14.2804
16.8998
19.9475
23.4056
27.2231
31.3077
35.5532
39.8877
44.2331
48.5177
52.6887
56.7186
60.5932
64.322
67.9293
71.4461
74.9054
78.3293
81.7276
85.1
88.44
91.7479
95.0396
98.3553
101.762
105.312
109.009
112.926
117.218
122.569
129.738
138.132
149.381
163.077
166.387
163.646
169.352
174.273
175.82
178.653
186.645
195.675
203.05
209.202
216.849
226.521
237.583
243.796
250.323
256.963
263.674
270.46
277.339
284.302
291.346
298.486
305.712
313.024
320.419
327.894
335.457
343.086
350.779
358.54
366.371
374.247
382.164
390.122
398.108
406.085
414.082
422.071
430.042
437.977
445.86
453.692
461.467
469.146
476.681
484.097
491.489
498.708
505.774
512.739
519.631
526.539
533.453
540.245
546.837
553.14
559.179
564.878
570.198
575.109
579.555
583.461
586.79
589.48
591.413
592.571
592.777
592.082
590.336
587.467
583.379
578.001
571.215
562.98
553.305
542.242
529.985
516.952
503.713
490.996
479.212
471.163
457.334
437.969
418.092
392.178
366.996
348.414
331.382
316.897
305.093
297.07
286.431
272.496
252.981
343.538
316.985
238.65
189.746
172.34
179.742
150.136
136.902
129.778
125.835
123.343
121.393
116.903
112.572
108.399
104.436
100.713
97.2193
93.9276
90.8342
87.9334
85.2335
82.7339
80.4255
78.3012
76.3553
74.5724
72.9422
71.4577
70.1066
68.8778
67.764
66.7536
65.8374
65.0076
64.2609
63.5855
62.991
62.4828
62.1036
61.96
62.5646
31.3583
9.258
8.40375
8.65673
9.36138
10.4022
11.7698
13.4853
15.5707
18.0332
20.8563
24.0001
27.4076
31.012
34.7455
38.5424
42.3412
46.0875
49.7468
53.3115
56.7788
60.1524
63.4469
66.6865
69.9016
73.1236
76.3777
79.681
83.0468
86.489
90.0328
93.7193
97.6041
101.747
106.175
110.848
115.653
120.433
125.101
129.82
134.908
140.376
145.748
150.61
155.501
160.552
165.42
170.342
175.639
181.24
186.748
192.121
197.611
203.356
209.258
215.072
220.721
226.375
232.066
237.793
243.555
249.349
255.172
261.021
266.89
272.774
278.669
284.57
290.472
296.367
302.251
308.117
313.961
319.774
325.554
331.298
336.998
342.648
348.241
353.778
359.254
364.664
370.009
375.287
380.497
385.644
390.729
395.747
400.709
405.68
410.621
415.513
420.387
425.252
430.097
434.894
439.616
444.27
448.727
453.099
457.333
461.398
465.258
468.876
472.207
475.198
477.794
479.922
481.516
482.463
482.727
482.218
480.82
478.459
475.046
470.512
464.802
457.88
449.75
440.445
430.071
418.801
407.016
395.445
385.373
376.827
365.127
349.954
336.198
323.564
310.445
295.526
280.065
264.235
249.203
235.716
222.979
210.342
209.006
199.901
180.986
166.845
155.754
148.405
136.308
126.634
119.489
113.63
109.419
105.266
100.414
95.6493
91.3363
87.5038
84.0625
80.9187
78.007
75.3007
72.7794
70.4384
68.2696
66.2644
64.4172
62.7199
61.1626
59.7359
58.4312
57.2393
56.1519
55.1611
54.2582
53.4357
52.6881
52.0087
51.3948
50.8473
50.3758
50.0143
49.8571
50.168
48.9467
14.0491
12.1841
12.2
12.8959
14.0322
15.548
17.4297
19.6702
22.25
25.1318
28.262
31.5782
35.018
38.5241
42.0497
45.5576
49.0228
52.4358
55.7963
59.1101
62.3906
65.6595
68.9419
72.2627
75.6458
79.1094
82.6664
86.3258
90.095
93.986
98.0157
102.206
106.577
111.132
115.843
120.652
125.483
130.288
135.091
139.986
145.044
150.239
155.524
160.878
166.285
171.731
177.234
182.806
188.42
194.051
199.703
205.4
211.154
216.949
222.756
228.568
234.388
240.221
246.063
251.913
257.765
263.614
269.455
275.279
281.081
286.854
292.592
298.288
303.935
309.528
315.058
320.521
325.911
331.226
336.462
341.611
346.671
351.64
356.517
361.303
365.997
370.601
375.116
379.548
383.902
388.188
392.408
396.573
400.729
404.854
408.931
412.984
417.013
421.013
424.97
428.875
432.736
436.446
440.102
443.672
447.134
450.456
453.603
456.534
459.203
461.557
463.532
465.059
466.048
466.406
466.107
464.992
462.988
460.006
455.969
450.811
444.485
436.975
428.278
418.442
407.557
395.854
383.772
371.97
360.536
347.744
333.428
319.506
306.026
292.19
277.677
262.93
248.25
234.084
220.948
208.766
197.197
186.916
176.679
166.386
157.361
148.931
140.766
132.209
124.555
117.93
111.814
106.524
101.626
96.6828
91.9259
87.6164
83.7916
80.3699
77.2578
74.3921
71.7415
69.2818
67.0012
64.8869
62.9309
61.1266
59.4642
57.9345
56.5279
55.2364
54.0516
52.9648
51.9688
51.0556
50.2184
49.4516
48.7499
48.1108
47.5357
47.0343
46.6355
46.4108
46.5493
66.5735
19.1801
16.1928
15.9388
16.5881
17.7623
19.3417
21.2798
23.5468
26.1088
28.9224
31.9356
35.0938
38.3463
41.6507
44.9763
48.3021
51.6182
54.925
58.2296
61.5436
64.8832
68.2672
71.7161
75.248
78.8802
82.6257
86.4926
90.4868
94.6112
98.8693
103.265
107.801
112.482
117.307
122.264
127.338
132.506
137.758
143.092
148.523
154.065
159.718
165.469
171.302
177.205
183.171
189.194
195.272
201.395
207.554
213.747
219.972
226.223
232.498
238.787
245.083
251.382
257.678
263.964
270.238
276.492
282.72
288.916
295.072
301.177
307.228
313.217
319.133
324.973
330.727
336.39
341.955
347.417
352.771
358.012
363.137
368.14
373.023
377.782
382.418
386.933
391.328
395.607
399.777
403.841
407.809
411.686
415.487
419.248
422.943
426.56
430.125
433.636
437.092
440.487
443.819
447.086
450.241
453.298
456.268
459.137
461.879
464.465
466.859
469.022
470.906
472.453
473.6
474.256
474.362
473.833
472.553
470.435
467.384
463.313
458.144
451.818
444.306
435.588
425.691
414.675
402.685
389.948
376.794
363.35
349.221
334.353
319.413
304.63
289.849
275.048
260.444
246.225
232.57
219.681
207.623
196.278
185.458
175.194
165.837
157.267
149.088
141.106
133.416
126.347
119.831
113.639
107.939
102.674
97.6451
92.9081
88.5871
84.6976
81.1834
77.9787
75.0312
72.3111
69.7932
67.4637
65.3076
63.3121
61.4683
59.7654
58.1936
56.743
55.4055
54.1725
53.0353
51.987
51.0199
50.1273
49.3041
48.5454
47.8493
47.2175
46.6598
46.2015
45.8991
45.8808
82.6386
24.1485
20.0456
19.5003
20.062
21.2163
22.7868
24.698
26.9052
29.3692
32.0488
34.8996
37.8791
40.9498
44.0823
47.2572
50.4643
53.7019
56.9749
60.2933
63.6703
67.1209
70.661
74.3068
78.072
81.9689
86.0074
90.1933
94.5306
99.0213
103.666
108.466
113.419
118.524
123.778
129.176
134.712
140.378
146.171
152.086
158.12
164.269
170.524
176.877
183.318
189.837
196.43
203.088
209.806
216.576
223.391
230.242
237.126
244.034
250.961
257.9
264.842
271.779
278.706
285.612
292.491
299.337
306.142
312.896
319.592
326.222
332.777
339.249
345.629
351.91
358.085
364.144
370.084
375.894
381.572
387.11
392.505
397.753
402.849
407.792
412.582
417.217
421.698
426.03
430.211
434.248
438.148
441.909
445.549
449.101
452.542
455.855
459.07
462.191
465.22
468.151
470.981
473.701
476.325
478.773
481.087
483.272
485.308
487.17
488.83
490.257
491.408
492.235
492.678
492.677
492.163
491.041
489.222
486.611
483.112
478.63
473.079
466.388
458.515
449.423
439.128
427.667
415.152
401.726
387.606
372.947
357.765
342.138
326.37
310.703
295.218
280.006
265.212
250.959
237.34
224.432
212.286
200.865
190.057
179.865
170.404
161.579
153.221
145.247
137.701
130.653
124.043
117.765
111.879
106.397
101.253
96.4506
92.0352
88.0063
84.3278
80.9559
77.851
74.9874
72.3403
69.8938
67.6313
65.5373
63.6012
61.8101
60.1536
58.6208
57.2026
55.8896
54.6732
53.5457
52.4993
51.5276
50.6258
49.7891
49.0162
48.3092
47.6777
47.1431
46.7482
46.5709
96.0222
28.5716
23.4315
22.5923
23.0422
24.1396
25.6577
27.4978
29.6056
31.9411
34.4683
37.1532
39.9647
42.8767
45.8705
48.9351
52.0666
55.2675
58.5451
61.9101
65.3754
68.9538
72.6584
76.5034
80.4996
84.6563
88.981
93.4782
98.1519
103.003
108.034
113.243
118.627
124.186
129.916
135.811
141.867
148.076
154.437
160.941
167.582
174.352
181.243
188.245
195.348
202.543
209.824
217.181
224.608
232.096
239.638
247.224
254.848
262.501
270.175
277.863
285.555
293.24
300.911
308.558
316.172
323.744
331.265
338.726
346.118
353.43
360.656
367.784
374.806
381.712
388.493
395.143
401.653
408.015
414.221
420.264
426.14
431.842
437.366
442.705
447.857
452.822
457.592
462.17
466.557
470.748
474.755
478.574
482.209
485.694
489.009
492.143
495.114
497.937
500.609
503.13
505.494
507.681
509.767
511.57
513.158
514.553
515.742
516.708
517.422
517.87
518.006
517.808
517.22
516.192
514.661
512.553
509.789
506.278
501.931
496.65
490.349
482.948
474.395
464.647
453.703
441.588
428.393
414.234
399.299
383.775
367.803
351.534
335.178
318.955
303.007
287.458
272.431
258.018
244.288
231.281
219.02
207.484
196.621
186.395
176.809
167.809
159.319
151.286
143.698
136.555
129.823
123.443
117.427
111.781
106.489
101.546
96.9677
92.7473
88.8613
85.2812
81.9765
78.9262
76.1056
73.4987
71.0874
68.8547
66.7886
64.8746
63.1016
61.4571
59.9312
58.5141
57.196
55.9689
54.8251
53.7576
52.7617
51.8326
50.9693
50.1742
49.4555
48.8317
48.3337
48.0044
106.03
32.1838
26.1462
25.0304
25.3594
26.3827
27.8306
29.5859
31.5874
33.796
36.1817
38.7195
41.3879
44.1707
47.0569
50.0414
53.1245
56.3111
59.6094
63.03
66.5849
70.2858
74.1439
78.1711
82.3763
86.7677
91.3519
96.1326
101.113
106.296
111.681
117.269
123.056
129.042
135.222
141.592
148.147
154.879
161.784
168.854
176.081
183.457
190.974
198.621
206.389
214.27
222.252
230.329
238.491
246.729
255.033
263.396
271.809
280.26
288.742
297.245
305.756
314.267
322.767
331.244
339.688
348.088
356.435
364.718
372.926
381.046
389.073
396.992
404.795
412.47
420.008
427.4
434.635
441.705
448.599
455.311
461.833
468.154
474.271
480.172
485.855
491.309
496.533
501.518
506.262
510.764
515.024
519.038
522.811
526.367
529.684
532.748
535.581
538.19
540.58
542.746
544.686
546.367
547.924
549.073
549.897
550.432
550.664
550.607
550.206
549.46
548.337
546.817
544.865
542.445
539.51
536.003
531.858
527.005
521.363
514.848
507.378
498.877
489.295
478.581
466.736
453.771
439.768
424.842
409.187
392.992
376.437
359.698
342.96
326.418
310.216
294.483
279.327
264.828
251.047
238.013
225.735
214.19
203.34
193.14
183.561
174.554
166.06
158.032
150.436
143.252
136.453
130
123.886
118.109
112.668
107.56
102.792
98.3604
94.2505
90.4442
86.9184
83.6571
80.636
77.8407
75.2523
72.8531
70.6303
68.5685
66.6548
64.8766
63.2227
61.6823
60.2451
58.9029
57.6468
56.4701
55.3677
54.3352
53.3712
52.4778
51.6623
50.9394
50.3303
49.857
112.387
34.8304
28.0874
26.7318
26.9434
27.8882
29.2638
30.9379
32.8438
34.9432
37.2107
39.6282
42.1821
44.863
47.6654
50.5889
53.637
56.8158
60.1339
63.6017
67.2302
71.0301
75.0116
79.1845
83.5573
88.1386
92.9339
97.9468
103.181
108.638
114.32
120.226
126.355
132.705
139.273
146.055
153.045
160.238
167.629
175.207
182.968
190.902
199
207.254
215.654
224.19
232.852
241.631
250.517
259.501
268.573
277.722
286.939
296.211
305.53
314.883
324.258
333.643
343.028
352.397
361.741
371.045
380.299
389.491
398.606
407.634
416.562
425.379
434.072
442.63
451.039
459.292
467.373
475.274
482.984
490.49
497.784
504.856
511.694
518.289
524.631
530.709
536.516
542.04
547.275
552.216
556.859
561.19
565.22
568.971
572.407
575.512
578.306
580.794
582.979
584.855
586.426
587.65
588.703
589.225
589.309
588.981
588.228
587.04
585.405
583.308
580.734
577.663
574.074
569.946
565.248
559.944
553.991
547.339
539.934
531.71
522.606
512.561
501.537
489.5
476.451
462.419
447.493
431.771
415.446
398.711
381.749
364.737
347.835
331.211
314.991
299.29
284.198
269.789
256.119
243.221
231.097
219.716
209.045
199.033
189.637
180.804
172.473
164.592
157.117
150.015
143.259
136.814
130.671
124.822
119.272
114.021
109.08
104.448
100.122
96.0915
92.3408
88.8585
85.6246
82.6252
79.8426
77.2592
74.8621
72.6349
70.5645
68.6368
66.8399
65.1627
63.5937
62.1243
60.7451
59.4493
58.2316
57.087
56.0144
55.0151
54.0952
53.2654
52.5401
51.9282
115.166
36.4715
29.2428
27.6934
27.8036
28.6743
29.9822
31.5846
33.4106
35.4221
37.5957
39.9168
42.3798
44.9821
47.7191
50.5929
53.6087
56.7735
60.0965
63.5875
67.2572
71.1157
75.1726
79.4371
83.9213
88.6318
93.5732
98.7482
104.158
109.811
115.709
121.851
128.235
134.862
141.727
148.831
156.167
163.731
171.518
179.52
187.73
196.142
204.746
213.535
222.499
231.628
240.913
250.343
259.911
269.604
279.411
289.322
299.327
309.411
319.564
329.773
340.024
350.304
360.601
370.897
381.181
391.436
401.651
411.809
421.897
431.901
441.805
451.596
461.26
470.784
480.152
489.353
498.372
507.196
515.812
524.206
532.371
540.286
547.944
555.328
562.429
569.23
575.721
581.888
587.715
593.197
598.323
603.079
607.467
611.509
615.164
618.407
621.255
623.707
625.762
627.417
628.678
629.506
630.093
630.1
629.482
628.288
626.531
624.2
621.28
617.754
613.611
608.835
603.413
597.333
590.58
583.141
574.994
566.121
556.495
546.088
534.864
522.803
509.88
496.063
481.449
466.184
450.271
433.785
416.911
399.808
382.635
365.547
348.679
332.175
316.141
300.681
285.874
271.772
258.424
245.87
234.121
223.124
212.841
203.215
194.203
185.744
177.771
170.223
163.045
156.192
149.631
143.328
137.27
131.447
125.869
120.54
115.475
110.685
106.172
101.939
97.9753
94.2782
90.8308
87.6236
84.64
81.8645
79.2837
76.8816
74.6445
72.5577
70.6089
68.786
67.077
65.4729
63.9638
62.5425
61.2033
59.9412
58.7547
57.6443
56.6147
55.6732
54.8288
54.0823
114.703
37.143
29.6658
27.9813
28.0078
28.8145
30.0645
31.6076
33.3698
35.3112
37.4074
39.649
42.0317
44.5548
47.2219
50.0374
53.007
56.1386
59.4411
62.9244
66.5986
70.4736
74.56
78.866
83.3977
88.1639
93.1715
98.4244
103.924
109.678
115.69
121.962
128.493
135.284
142.335
149.65
157.222
165.046
173.119
181.43
189.98
198.763
207.77
216.993
226.423
236.052
245.871
255.871
266.043
276.373
286.853
297.469
308.212
319.066
330.02
341.058
352.168
363.331
374.536
385.763
396.998
408.223
419.422
430.579
441.676
452.695
463.621
474.437
485.126
495.672
506.057
516.269
526.287
536.098
545.686
555.036
564.134
572.96
581.503
589.746
597.672
605.267
612.51
619.389
625.883
631.979
637.664
642.916
647.736
652.145
656.091
659.551
662.528
665.018
667.012
668.508
669.512
669.999
670.218
669.713
668.43
666.421
663.698
660.24
656.033
651.054
645.287
638.719
631.337
623.139
614.121
604.284
593.634
582.18
569.931
556.908
543.092
528.488
513.322
497.565
481.309
464.56
447.446
430.087
412.642
395.237
377.996
361.035
344.448
328.342
312.789
297.865
283.63
270.121
257.37
245.396
234.204
223.763
214.051
204.997
196.583
188.713
181.304
174.294
167.614
161.207
155.029
149.038
143.22
137.561
132.074
126.766
121.662
116.778
112.133
107.736
103.589
99.6973
96.0502
92.6427
89.4624
86.4954
83.73
81.1507
78.7439
76.4945
74.3901
72.418
70.5655
68.8233
67.1813
65.6314
64.1682
62.7861
61.4831
60.2591
59.117
58.0616
57.0972
56.2207
111.518
37.0351
29.5016
27.7358
27.6908
28.4279
29.6113
31.0883
32.7817
34.6511
36.6756
38.845
41.1555
43.608
46.2059
48.9548
51.8618
54.9348
58.183
61.6158
65.2433
69.075
73.1207
77.3896
81.889
86.6276
91.6128
96.8505
102.347
108.107
114.135
120.435
127.009
133.861
140.989
148.394
156.075
164.031
172.261
180.758
189.516
198.536
207.812
217.339
227.107
237.111
247.352
257.814
268.485
279.353
290.411
301.647
313.049
324.599
336.286
348.098
360.015
372.02
384.099
396.231
408.398
420.581
432.76
444.918
457.032
469.081
481.049
492.914
504.656
516.257
527.694
538.952
550.009
560.848
571.45
581.796
591.87
601.653
611.123
620.266
629.063
637.491
645.533
653.168
660.373
667.131
673.422
679.22
684.522
689.344
693.636
697.361
700.521
703.106
705.094
706.477
707.254
707.44
707.303
706.315
704.416
701.638
697.981
693.422
687.937
681.499
674.083
665.672
656.253
645.821
634.386
621.962
608.569
594.259
579.061
563.013
546.36
529.196
511.492
493.334
474.926
456.398
437.918
419.601
401.586
383.969
366.829
350.23
334.212
318.824
304.091
290.047
276.717
264.119
252.266
241.166
230.815
221.191
212.27
204.003
196.343
189.225
182.566
176.295
170.324
164.569
158.977
153.497
148.103
142.778
137.531
132.375
127.341
122.458
117.754
113.254
108.971
104.92
101.099
97.5115
94.1487
91.0007
88.0582
85.3069
82.7341
80.325
78.0668
75.9466
73.9518
72.0724
70.2981
68.6205
67.0339
65.5324
64.1131
62.7754
61.5207
60.3515
59.2689
58.2674
106.107
36.1825
28.8038
27.0175
26.9222
27.601
28.723
30.1366
31.7651
33.5675
35.5222
37.6187
39.8534
42.2271
44.7435
47.4083
50.2288
53.2129
56.3695
59.7081
63.2381
66.9693
70.9111
75.0734
79.4642
84.0926
88.9673
94.0949
99.4834
105.139
111.068
117.275
123.766
130.545
137.614
144.976
152.634
160.586
168.836
177.381
186.221
195.353
204.775
214.483
224.473
234.738
245.271
256.065
267.112
278.399
289.912
301.647
313.592
325.729
338.06
350.561
363.209
375.983
388.875
401.857
414.908
428.009
441.137
454.27
467.384
480.453
493.457
506.371
519.171
531.835
544.337
556.659
568.775
580.662
592.301
603.669
614.745
625.506
635.931
646
655.692
664.98
673.845
682.262
690.204
697.65
704.575
710.949
716.76
722.024
726.686
730.708
734.084
736.795
738.814
740.111
740.692
740.572
740.041
738.582
736.083
732.549
727.965
722.306
715.533
707.614
698.511
688.203
676.672
663.915
649.951
634.804
618.498
601.066
582.828
563.889
544.189
523.884
503.231
482.422
461.701
441.268
421.338
402.043
383.511
365.806
348.959
332.969
317.807
303.454
289.873
277.041
264.946
253.569
242.905
232.946
223.684
215.101
207.18
199.885
193.174
186.989
181.256
175.889
170.798
165.888
161.093
156.327
151.556
146.753
141.92
137.071
132.242
127.473
122.807
118.281
113.925
109.765
105.811
102.075
98.5551
95.2455
92.1419
89.2313
86.5028
83.9426
81.5379
79.2762
77.1447
75.1332
73.2311
71.4298
69.7235
68.1057
66.5733
65.1245
63.7597
62.4792
61.2822
60.1618
99.1176
34.7807
27.7308
25.9812
25.8546
26.479
27.5367
28.8818
30.4392
32.168
34.0458
36.0615
38.2106
40.4932
42.9122
45.4727
48.1815
51.0461
54.0751
57.2771
60.662
64.2392
68.0182
72.0092
76.2212
80.6637
85.3468
90.2784
95.4677
100.923
106.652
112.662
118.96
125.554
132.447
139.647
147.156
154.978
163.119
171.578
180.358
189.459
198.882
208.624
218.685
229.06
239.744
250.733
262.02
273.598
285.457
297.587
309.979
322.617
335.486
348.572
361.852
375.301
388.906
402.646
416.501
430.457
444.476
458.534
472.604
486.656
500.667
514.607
528.449
542.165
555.726
569.108
582.284
595.226
607.909
620.307
632.397
644.15
655.543
666.551
677.148
687.311
697.01
706.22
714.914
723.061
730.634
737.595
743.927
749.639
754.684
759.01
762.608
765.454
767.51
768.725
769.091
768.636
767.673
765.705
762.57
758.243
752.696
745.888
737.775
728.312
717.453
705.169
691.446
676.272
659.637
641.597
622.394
602.104
580.709
558.338
535.243
511.68
487.976
464.415
441.327
418.983
397.65
377.48
358.588
341.003
324.689
309.579
295.562
282.541
270.41
259.089
248.513
238.633
229.416
220.838
212.883
205.536
198.788
192.617
186.995
181.878
177.201
172.884
168.828
164.932
161.097
157.238
153.29
149.203
144.967
140.593
136.119
131.596
127.079
122.623
118.271
114.067
110.033
106.191
102.55
99.1081
95.8671
92.8177
89.951
87.2542
84.7159
82.324
80.0657
77.9311
75.9091
73.9917
72.1724
70.4444
68.8044
67.2496
65.7793
64.3924
63.0866
61.8542
91.1221
32.9923
26.4032
24.7383
24.5989
25.1739
26.1654
27.4361
28.9144
30.5606
32.3521
34.2768
36.3289
38.5072
40.8135
43.2516
45.8271
48.5468
51.4184
54.4505
57.6522
61.033
64.6026
68.3718
72.3498
76.5478
80.9763
85.6449
90.5645
95.7448
101.196
106.928
112.948
119.268
125.894
132.835
140.098
147.688
155.614
163.88
172.489
181.446
190.753
200.412
210.423
220.786
231.498
242.556
253.958
265.696
277.764
290.151
302.851
315.847
329.127
342.677
356.475
370.503
384.745
399.172
413.762
428.488
443.318
458.218
473.162
488.128
503.092
518.009
532.851
547.582
562.171
576.59
590.805
604.787
618.505
631.927
645.026
657.769
670.129
682.076
693.581
704.615
715.148
725.151
734.59
743.437
751.655
759.201
766.048
772.199
777.61
782.229
786.028
788.983
791.051
792.152
792.265
791.423
789.942
787.372
783.508
778.295
771.686
763.627
754.066
742.947
730.213
715.82
699.712
681.985
662.756
642.043
619.777
596.093
571.195
545.323
518.783
491.934
465.196
438.958
413.645
389.597
367.126
346.385
327.46
310.324
294.866
280.936
268.343
256.914
246.472
236.886
228.042
219.86
212.276
205.255
198.768
192.803
187.353
182.414
177.973
174.006
170.467
167.286
164.364
161.594
158.866
156.071
153.115
149.923
146.465
142.735
138.772
134.634
130.388
126.106
121.849
117.676
113.626
109.732
106.013
102.478
99.1321
95.9713
92.9898
90.1773
87.5234
85.0172
82.6464
80.4013
78.2714
76.2483
74.3255
72.4961
70.7563
69.1028
67.5339
66.0475
64.64
63.3036
82.1917
30.939
24.895
23.3566
23.2241
23.7569
24.683
25.876
27.2696
28.8262
30.5237
32.3493
34.296
36.3612
38.5447
40.8492
43.2787
45.8389
48.5367
51.3799
54.3773
57.5383
60.8731
64.3926
68.1072
72.0287
76.1689
80.539
85.1514
90.0174
95.1495
100.559
106.257
112.255
118.564
125.194
132.155
139.456
147.108
155.115
163.486
172.228
181.345
190.842
200.722
210.987
221.637
232.672
244.091
255.888
268.06
280.598
293.496
306.74
320.32
334.22
348.422
362.907
377.657
392.645
407.846
423.232
438.774
454.442
470.204
486.023
501.868
517.692
533.461
549.149
564.711
580.117
595.333
610.32
625.043
639.466
653.554
667.27
680.581
693.452
705.851
717.743
729.094
739.868
750.032
759.553
768.389
776.495
783.832
790.381
796.111
800.973
804.921
807.912
809.913
810.821
810.623
809.261
807.113
803.771
799.003
792.722
784.86
775.349
764.104
751.051
736.205
719.585
701.149
680.832
658.631
634.62
608.907
581.67
553.163
523.713
493.727
463.673
434.097
405.495
378.381
353.145
330.101
309.37
290.967
274.778
260.603
248.203
237.313
227.692
219.113
211.397
204.403
198.02
192.169
186.795
181.865
177.362
173.285
169.638
166.426
163.648
161.279
159.268
157.521
155.938
154.404
152.791
150.966
148.819
146.293
143.364
140.061
136.444
132.593
128.594
124.528
120.47
116.475
112.591
108.848
105.264
101.852
98.6136
95.5469
92.6441
89.8973
87.2968
84.8312
82.4918
80.2683
78.1523
76.138
74.218
72.3882
70.645
68.9861
67.4082
65.9073
64.4755
73.8473
28.6509
23.2557
21.8923
21.7945
22.3021
23.1744
24.298
25.6136
27.0868
28.6966
30.4302
32.2795
34.2405
36.3116
38.4939
40.7899
43.2043
45.7429
48.4132
51.2235
54.1833
57.3029
60.5939
64.0674
67.7363
71.6135
75.7115
80.0443
84.6248
89.4672
94.5845
99.9893
105.696
111.717
118.065
124.751
131.786
139.182
146.948
155.094
163.628
172.557
181.887
191.625
201.772
212.332
223.306
234.696
246.498
258.709
271.324
284.338
297.739
311.518
325.662
340.153
354.973
370.106
385.524
401.203
417.115
433.23
449.517
465.941
482.463
499.051
515.663
532.261
548.801
565.224
581.509
597.623
613.522
629.161
644.5
659.497
674.109
688.298
702.022
715.243
727.921
740.015
751.484
762.286
772.391
781.751
790.316
798.04
804.883
810.81
815.781
819.74
822.62
824.37
824.897
824.206
822.091
819.004
814.599
808.611
800.915
791.418
780.116
766.916
751.781
734.598
715.316
693.906
670.377
644.766
617.171
587.755
556.767
524.549
491.544
458.291
425.4
393.55
363.334
335.316
309.877
287.261
267.483
250.435
235.884
223.528
213.048
204.121
196.466
189.83
184.015
178.866
174.266
170.126
166.384
163.001
159.957
157.253
154.901
152.918
151.325
150.114
149.251
148.658
148.256
147.937
147.572
146.947
145.938
144.451
142.435
139.905
136.921
133.572
129.959
126.176
122.318
118.454
114.648
110.941
107.362
103.931
100.656
97.5407
94.5796
91.7683
89.0987
86.5609
84.1473
81.8483
79.656
77.5649
75.5678
73.6605
71.8391
70.1008
68.4418
66.8573
65.3391
66.7304
26.4864
21.7272
20.5597
20.525
21.04
21.8926
22.9829
24.2586
25.6887
27.2537
28.941
30.7423
32.6525
34.6693
36.7922
39.0234
41.3663
43.8267
46.4118
49.1295
51.989
55.0011
58.1779
61.5311
65.0744
68.8217
72.7865
76.9835
81.427
86.132
91.1126
96.3823
101.957
107.849
114.072
120.638
127.56
134.849
142.515
150.569
159.018
167.871
177.135
186.815
196.915
207.44
218.391
229.769
241.575
253.804
266.455
279.525
293.001
306.877
321.141
335.779
350.773
366.111
381.764
397.712
413.926
430.38
447.041
463.874
480.84
497.907
515.033
532.171
549.274
566.303
583.22
599.982
616.541
632.852
648.866
664.538
679.817
694.66
709.019
722.847
736.1
748.73
760.69
771.93
782.411
792.084
800.896
808.793
815.725
821.645
826.506
830.251
832.802
834.068
834.025
832.586
829.48
825.186
819.417
811.936
802.602
791.34
778.032
762.583
744.935
725.017
702.784
678.213
651.331
622.214
591.008