/*--------------------------------*- C++ -*----------------------------------*\
  =========                 |
  \\      /  F ield         | OpenFOAM: The Open Source CFD Toolbox
   \\    /   O peration     | Website:  https://openfoam.org
    \\  /    A nd           | Version:  7
     \\/     M anipulation  |
\*---------------------------------------------------------------------------*/
FoamFile
{
    version     2.0;
    format      ascii;
    class       volScalarField;
    location    "200";
    object      k;
}
// * * * * * * * * * * * * * * * * * * * * * * * * * * * * * * * * * * * * * //

dimensions      [0 2 -2 0 0 0 0];

internalField   nonuniform List<scalar> 
48900
(
0.585496
0.308416
0.266384
0.268152
0.316247
0.388639
0.450292
0.491838
0.516908
0.531834
0.541369
0.548145
0.553451
0.557955
0.561887
0.565264
0.568266
0.570933
0.394168
0.535256
0.532875
0.556181
0.634074
0.735582
0.831768
0.911785
0.975898
1.02787
1.07118
1.10821
1.14034
1.16849
1.19321
1.21482
1.23351
1.249
0.37643
0.406913
0.414973
0.415558
0.415206
0.417091
0.422463
0.430693
0.441456
0.454576
0.470002
0.487619
0.507218
0.528473
0.550976
0.57422
0.597597
0.620291
0.374643
0.382084
0.386173
0.386884
0.385798
0.383539
0.380964
0.378395
0.375993
0.373812
0.372003
0.370662
0.369887
0.369799
0.370288
0.371502
0.373396
0.375886
0.374398
0.37493
0.376323
0.376561
0.375846
0.37425
0.372147
0.369749
0.367189
0.364552
0.3619
0.359282
0.356743
0.354313
0.352026
0.3499
0.347947
0.346165
0.374429
0.372897
0.372343
0.371848
0.37101
0.369751
0.368154
0.366316
0.364318
0.362216
0.360056
0.357871
0.355687
0.353529
0.351413
0.349353
0.347362
0.345448
0.374436
0.372362
0.370802
0.369595
0.368436
0.367174
0.36577
0.36424
0.362612
0.360912
0.359168
0.357399
0.355623
0.353854
0.352105
0.350386
0.348705
0.347067
0.374431
0.37224
0.370288
0.368613
0.367116
0.365692
0.364276
0.362842
0.361383
0.359904
0.35841
0.356911
0.355415
0.35393
0.352462
0.351017
0.3496
0.348213
0.374425
0.372198
0.370125
0.368232
0.366505
0.364904
0.363388
0.361927
0.360504
0.359107
0.357732
0.356377
0.355043
0.353732
0.352445
0.351183
0.349949
0.348743
0.374421
0.372171
0.370058
0.368083
0.366241
0.364521
0.362906
0.361378
0.359923
0.358527
0.357182
0.355881
0.354621
0.353397
0.352208
0.351053
0.34993
0.348836
0.374419
0.372152
0.370017
0.368009
0.366119
0.364339
0.36266
0.361075
0.359573
0.358147
0.356788
0.355489
0.354244
0.353049
0.351899
0.350791
0.349722
0.348689
0.374417
0.372139
0.369991
0.367965
0.366052
0.364244
0.362534
0.360915
0.35938
0.357924
0.356541
0.355225
0.353971
0.352773
0.351628
0.350531
0.349478
0.348466
0.374416
0.372131
0.369973
0.367935
0.36601
0.364188
0.362461
0.360825
0.359271
0.357797
0.356396
0.355063
0.353795
0.352586
0.351433
0.350331
0.349278
0.348269
0.374415
0.372124
0.369958
0.367911
0.365975
0.364142
0.362405
0.360756
0.35919
0.357702
0.356288
0.354942
0.35366
0.352439
0.351275
0.350164
0.349103
0.348089
0.374414
0.372118
0.369946
0.367891
0.365947
0.364106
0.36236
0.360703
0.359128
0.357631
0.356207
0.354852
0.353561
0.35233
0.351157
0.350037
0.348969
0.347948
0.374413
0.372114
0.369937
0.367877
0.365926
0.364078
0.362325
0.360661
0.35908
0.357577
0.356146
0.354784
0.353487
0.35225
0.351071
0.349946
0.348872
0.347847
0.374413
0.372111
0.369931
0.367866
0.365911
0.364058
0.3623
0.360631
0.359045
0.357537
0.356102
0.354736
0.353435
0.352194
0.351012
0.349883
0.348807
0.347779
0.374413
0.372109
0.369927
0.36786
0.365901
0.364045
0.362284
0.360611
0.359022
0.357511
0.356074
0.354705
0.353402
0.352159
0.350975
0.349846
0.348768
0.34774
0.374413
0.372108
0.369925
0.367857
0.365898
0.36404
0.362278
0.360604
0.359014
0.357502
0.356064
0.354695
0.353391
0.352148
0.350964
0.349835
0.348759
0.347732
0.374413
0.372109
0.369927
0.367861
0.365903
0.364047
0.362287
0.360615
0.359027
0.357517
0.35608
0.354712
0.35341
0.35217
0.350988
0.349862
0.348788
0.347763
0.374414
0.372112
0.369932
0.367869
0.365916
0.364064
0.362308
0.36064
0.359055
0.357549
0.356116
0.354752
0.353453
0.352217
0.351039
0.349916
0.348846
0.347826
0.374415
0.372116
0.369942
0.367885
0.365938
0.364093
0.362343
0.360683
0.359105
0.357605
0.35618
0.354823
0.353533
0.352304
0.351134
0.350019
0.348957
0.347944
0.374416
0.372123
0.369957
0.36791
0.365974
0.364142
0.362406
0.360762
0.359202
0.357722
0.356317
0.354981
0.35371
0.352499
0.351345
0.350244
0.349192
0.348187
0.374419
0.372135
0.369982
0.367954
0.366047
0.364257
0.362575
0.360989
0.359488
0.358062
0.356703
0.355403
0.354157
0.35296
0.351809
0.350701
0.349634
0.348606
0.374421
0.372153
0.370037
0.368103
0.366349
0.364735
0.363222
0.361775
0.360373
0.359005
0.357665
0.356352
0.355066
0.353807
0.352578
0.351379
0.350211
0.349076
0.374403
0.372214
0.370413
0.368997
0.367752
0.366518
0.365225
0.363859
0.362434
0.360969
0.359484
0.357997
0.356519
0.355059
0.353624
0.35222
0.35085
0.349516
0.374341
0.372988
0.372903
0.372814
0.372257
0.371203
0.369785
0.368142
0.366389
0.364595
0.362805
0.361043
0.359323
0.357652
0.356034
0.354473
0.352972
0.351533
0.375443
0.379136
0.38335
0.384301
0.383594
0.381802
0.37975
0.377837
0.376201
0.374878
0.373843
0.373053
0.372477
0.372096
0.371898
0.371893
0.372063
0.372435
0.404619
0.415014
0.420711
0.417847
0.414706
0.415459
0.420638
0.430161
0.442639
0.456939
0.472208
0.48787
0.503585
0.519171
0.534534
0.549634
0.564457
0.57899
0.36433
0.560228
0.522866
0.547533
0.630286
0.742771
0.856323
0.953263
1.02779
1.08177
1.11989
1.14682
1.16618
1.18055
1.19158
1.20035
1.20754
1.21356
0.00433753
0.012531
0.0240466
0.0331836
0.0406436
0.0470921
0.0531775
0.0598875
0.067683
0.0772049
0.0890342
0.103576
0.120953
0.141062
0.16354
0.187831
0.21332
0.239401
0.265581
0.29145
0.316766
0.341396
0.365309
0.388564
0.41123
0.433322
0.454797
0.475467
0.494991
0.512882
0.52857
0.541537
0.55154
0.55853
0.561946
0.563309
0.561289
0.558458
0.558771
0.562289
0.569811
0.570719
0.551166
0.53292
0.568098
0.560748
0.567938
0.578321
0.605623
0.60394
0.595027
0.615675
0.616307
0.612753
0.606439
0.586584
0.601065
0.613573
0.626366
0.639609
0.65311
0.666812
0.680716
0.694839
0.709193
0.723792
0.738654
0.753788
0.769202
0.784905
0.800886
0.817149
0.833679
0.850455
0.867537
0.884855
0.902375
0.920074
0.938002
0.956033
0.974212
0.992413
1.01068
1.02887
1.04701
1.06498
1.08278
1.10027
1.11737
1.13427
1.15064
1.16623
1.18104
1.195
1.20797
1.22017
1.23167
1.24251
1.25248
1.26145
1.2693
1.2761
1.28173
1.28613
1.28872
1.28981
1.29105
1.28933
1.28604
1.28097
1.27397
1.2651
1.25415
1.24112
1.2258
1.20846
1.1887
1.16679
1.14284
1.1172
1.09031
1.06186
1.02927
0.988612
0.910721
0.749996
0.67436
0.639901
0.568187
0.49228
0.444662
0.414548
0.419706
0.446356
0.481905
0.488809
0.480526
0.520139
0.690269
0.642759
0.64496
0.661663
0.715897
0.699394
0.766201
0.766386
0.740734
0.724144
0.688743
0.68133
0.684211
0.680965
0.66751
0.649256
0.629215
0.608998
0.589319
0.570519
0.552705
0.53588
0.520166
0.505527
0.491936
0.479298
0.467638
0.456846
0.446861
0.437673
0.429165
0.421301
0.414018
0.407255
0.400956
0.395051
0.389491
0.384145
0.379009
0.373949
0.368955
0.363336
0.0139064
0.0589038
0.0851403
0.10441
0.120716
0.135728
0.150547
0.166086
0.183097
0.202098
0.223353
0.246883
0.272505
0.299925
0.328755
0.358547
0.388856
0.419282
0.449475
0.479171
0.508171
0.536383
0.563801
0.5905
0.616602
0.642252
0.667577
0.692611
0.717274
0.741378
0.764621
0.786666
0.807294
0.826592
0.844995
0.863354
0.882846
0.904537
0.928422
0.952263
0.973761
0.993245
1.01225
1.03817
1.06804
1.09452
1.11954
1.14533
1.16901
1.19111
1.21828
1.24238
1.26563
1.28862
1.31095
1.33438
1.35807
1.3817
1.40532
1.42891
1.45251
1.47604
1.49958
1.52318
1.54674
1.57036
1.59405
1.61784
1.64175
1.66575
1.68991
1.71426
1.73874
1.76342
1.7883
1.81339
1.83868
1.86424
1.89005
1.91609
1.94238
1.96895
1.99577
2.02291
2.05027
2.07794
2.10585
2.13398
2.16235
2.19121
2.22036
2.24945
2.27865
2.30789
2.3371
2.36629
2.39542
2.42453
2.45334
2.48185
2.51006
2.53773
2.5646
2.59052
2.61534
2.63877
2.66048
2.68028
2.69776
2.71266
2.72452
2.733
2.73713
2.7377
2.73311
2.72345
2.7083
2.6875
2.66089
2.62818
2.58907
2.54302
2.48922
2.42649
2.35266
2.27755
2.20192
2.12989
2.06215
1.99247
1.92134
1.85474
1.79274
1.73175
1.67005
1.61075
1.55448
1.49952
1.39007
1.36361
1.33514
1.29706
1.25308
1.1949
1.17196
1.13971
1.10636
1.07682
1.04163
1.00968
0.986261
0.965687
0.943827
0.920301
0.896093
0.872164
0.84909
0.827164
0.806445
0.786967
0.768703
0.751653
0.735817
0.721114
0.707518
0.694961
0.683373
0.672678
0.662824
0.653731
0.645329
0.637551
0.630329
0.623561
0.617231
0.611217
0.605484
0.600036
0.595073
0.591658
0.0271708
0.0990612
0.134215
0.159816
0.181871
0.202654
0.223499
0.245359
0.26889
0.294465
0.322167
0.351839
0.383179
0.415799
0.449307
0.483323
0.517533
0.551648
0.585454
0.618783
0.651547
0.683713
0.715309
0.746437
0.777219
0.807843
0.838457
0.86919
0.900108
0.93119
0.962348
0.993461
1.02446
1.05542
1.08663
1.11847
1.1514
1.18552
1.2203
1.25477
1.2883
1.32132
1.35476
1.38925
1.42431
1.45921
1.49372
1.5281
1.56224
1.59629
1.6304
1.66418
1.69753
1.73064
1.76356
1.79649
1.82927
1.86177
1.89409
1.92625
1.95826
1.99013
2.02188
2.05346
2.08494
2.11627
2.14748
2.17857
2.20953
2.24039
2.27109
2.30171
2.33219
2.36254
2.39277
2.42288
2.45291
2.48277
2.51255
2.54222
2.57179
2.6013
2.63071
2.66007
2.6894
2.71871
2.74805
2.77738
2.80675
2.83645
2.8663
2.89612
2.92606
2.95607
2.98615
3.01623
3.04628
3.07631
3.10585
3.13528
3.16439
3.19301
3.22097
3.24802
3.27396
3.29851
3.32132
3.34207
3.36036
3.37575
3.38775
3.3958
3.39915
3.398
3.39112
3.37821
3.35889
3.33277
3.29962
3.25925
3.21153
3.15639
3.09395
3.02467
2.95092
2.87772
2.79728
2.7106
2.6276
2.54407
2.45783
2.37122
2.28624
2.20258
2.12084
2.04292
1.96773
1.89302
1.80546
1.73836
1.68448
1.62679
1.56508
1.50056
1.44884
1.40133
1.35415
1.31049
1.27147
1.23149
1.19513
1.16307
1.13314
1.104
1.07546
1.04779
1.02128
0.996106
0.97228
0.949816
0.92871
0.908939
0.890486
0.873287
0.857301
0.84245
0.828667
0.815896
0.804041
0.793039
0.782819
0.7733
0.7644
0.756065
0.748215
0.740812
0.733836
0.727381
0.721881
0.718664
0.0423883
0.139999
0.183889
0.215533
0.24262
0.267973
0.293164
0.319212
0.346774
0.376178
0.407472
0.440478
0.474893
0.510366
0.546555
0.583169
0.619964
0.656749
0.693417
0.729895
0.766145
0.802175
0.838046
0.873838
0.909672
0.945705
0.98207
1.01891
1.05629
1.09426
1.1328
1.17186
1.21139
1.25138
1.29187
1.33293
1.37461
1.41686
1.45948
1.50215
1.5447
1.58714
1.62963
1.6723
1.71509
1.75789
1.80061
1.84319
1.88562
1.92784
1.96986
2.01166
2.05317
2.0944
2.13532
2.17595
2.21625
2.25616
2.29576
2.33502
2.37395
2.41255
2.45082
2.48878
2.52636
2.56361
2.60049
2.63699
2.67312
2.70884
2.74419
2.7791
2.81358
2.84763
2.88125
2.91442
2.94715
2.97942
3.01127
3.04265
3.07363
3.10417
3.13432
3.16407
3.19348
3.22256
3.25138
3.27994
3.30831
3.33668
3.36499
3.3931
3.42114
3.44908
3.47694
3.50467
3.53225
3.55968
3.58664
3.61327
3.6395
3.66527
3.69036
3.71462
3.7378
3.75965
3.77988
3.79813
3.81398
3.82698
3.83664
3.84229
3.8435
3.83973
3.83021
3.81444
3.7919
3.76215
3.7249
3.67989
3.62706
3.56642
3.49831
3.42339
3.3432
3.25954
3.17042
3.07581
2.98018
2.88375
2.78606
2.68833
2.59213
2.49807
2.40675
2.3187
2.23382
2.15171
2.06904
1.99169
1.92141
1.85256
1.78446
1.71813
1.65738
1.60093
1.54667
1.49524
1.4486
1.40399
1.36187
1.32319
1.28737
1.25349
1.22112
1.19023
1.16083
1.133
1.10669
1.08189
1.05856
1.03666
1.01614
0.996941
0.979018
0.962286
0.946677
0.93213
0.918551
0.905876
0.894029
0.882923
0.872498
0.862684
0.853428
0.844705
0.836545
0.829117
0.822915
0.819084
0.0576559
0.17908
0.231607
0.269078
0.300731
0.329894
0.358353
0.387238
0.417259
0.44879
0.481935
0.516593
0.552536
0.589497
0.627213
0.665475
0.704105
0.742993
0.782082
0.821353
0.860809
0.900487
0.940441
0.980761
1.02153
1.06287
1.10488
1.14762
1.1912
1.23562
1.28087
1.32693
1.37372
1.42121
1.4693
1.51798
1.56718
1.61686
1.66691
1.71722
1.76772
1.8183
1.86894
1.91961
1.97026
2.02086
2.07136
2.1217
2.17186
2.22177
2.27141
2.32074
2.36973
2.41833
2.46654
2.51432
2.56163
2.60846
2.65479
2.70059
2.7459
2.79066
2.83489
2.87857
2.92169
2.96419
3.00609
3.04737
3.08799
3.12796
3.16723
3.20581
3.24365
3.28076
3.31713
3.35273
3.38757
3.42161
3.45489
3.48737
3.51908
3.55001
3.58018
3.60959
3.63832
3.66634
3.69371
3.72049
3.74672
3.77263
3.79807
3.823
3.84755
3.87171
3.89555
3.91898
3.94203
3.96469
3.98694
4.00848
4.02942
4.04976
4.06938
4.08811
4.10582
4.12227
4.13721
4.15032
4.16125
4.16959
4.17482
4.17638
4.17384
4.16647
4.15362
4.13471
4.10913
4.07637
4.03603
3.98778
3.93149
3.86713
3.79507
3.71584
3.63054
3.54024
3.4448
3.34439
3.24126
3.13689
3.03195
2.92745
2.82461
2.72425
2.62682
2.53261
2.44185
2.35459
2.26977
2.18811
2.11063
2.03609
1.96413
1.89516
1.83003
1.76859
1.71002
1.65427
1.60243
1.55367
1.50761
1.46458
1.42446
1.38675
1.35108
1.31729
1.28528
1.25504
1.22647
1.19954
1.1742
1.15036
1.12798
1.10698
1.08732
1.06888
1.05162
1.03545
1.02028
1.00605
0.992667
0.980058
0.968164
0.956921
0.94629
0.936266
0.926922
0.91846
0.911358
0.906387
0.0715856
0.214117
0.274517
0.317324
0.353061
0.385454
0.416484
0.447382
0.478948
0.51165
0.545701
0.581103
0.617752
0.65548
0.694112
0.733503
0.77355
0.814188
0.855393
0.897173
0.939557
0.982587
1.02632
1.07082
1.11616
1.1624
1.20962
1.25785
1.30712
1.35745
1.40881
1.46117
1.51446
1.5686
1.62351
1.67912
1.73534
1.79209
1.84931
1.9069
1.96479
2.02289
2.0811
2.13936
2.19761
2.25578
2.31384
2.37172
2.42937
2.48674
2.54379
2.60045
2.6567
2.71247
2.76776
2.8225
2.87666
2.9302
2.98311
3.03532
3.08683
3.13763
3.18769
3.23696
3.28544
3.33309
3.3799
3.42581
3.47082
3.5149
3.55802
3.60014
3.64128
3.68136
3.72039
3.75833
3.79519
3.83093
3.86553
3.89899
3.93131
3.96247
3.99248
4.02136
4.04911
4.07574
4.10131
4.12582
4.14935
4.17209
4.19395
4.21483
4.2349
4.25423
4.27282
4.29068
4.3078
4.32416
4.34017
4.35493
4.3687
4.38162
4.39358
4.40452
4.41438
4.42301
4.43017
4.43566
4.43924
4.44048
4.43909
4.43454
4.42629
4.41376
4.39632
4.37333
4.34416
4.3082
4.26499
4.21406
4.1552
4.08827
4.01355
3.93143
3.84283
3.74858
3.64919
3.54528
3.43835
3.33001
3.22132
3.1133
3.00701
2.90322
2.80243
2.70495
2.61106
2.52079
2.43375
2.34988
2.26955
2.19253
2.11859
2.04781
1.98035
1.91623
1.85513
1.79683
1.74183
1.68992
1.64085
1.59463
1.55125
1.51042
1.47189
1.43548
1.40106
1.36855
1.33785
1.3089
1.28163
1.25593
1.23176
1.20902
1.18766
1.16758
1.1487
1.13093
1.1142
1.09842
1.08352
1.06941
1.05605
1.04337
1.03136
1.02002
1.00946
0.999879
0.991691
0.985322
0.0832165
0.243443
0.31049
0.35789
0.397159
0.432313
0.465464
0.497934
0.530606
0.564048
0.598581
0.634338
0.671331
0.709493
0.748744
0.789003
0.830216
0.872354
0.915419
0.959433
1.00443
1.05046
1.09755
1.14578
1.19519
1.2458
1.29766
1.35078
1.40516
1.46079
1.51765
1.57567
1.63479
1.69495
1.75604
1.81798
1.88067
1.94401
2.00795
2.07237
2.13718
2.20229
2.26762
2.33306
2.39856
2.46399
2.52934
2.59451
2.65945
2.7241
2.78838
2.85224
2.91564
2.9785
3.0408
3.10246
3.16344
3.22368
3.28316
3.34181
3.39959
3.45648
3.51243
3.56741
3.62138
3.6743
3.72614
3.77686
3.82642
3.87479
3.92192
3.9678
4.01238
4.05563
4.09752
4.13799
4.17706
4.21468
4.25082
4.28543
4.31853
4.3501
4.38008
4.40851
4.43538
4.46065
4.4844
4.50661
4.5273
4.54668
4.56465
4.58116
4.59632
4.61024
4.62294
4.63446
4.64481
4.65389
4.66261
4.66943
4.67469
4.67871
4.68137
4.68263
4.68267
4.6814
4.67855
4.67409
4.66788
4.65965
4.64915
4.63601
4.6198
4.60002
4.57612
4.54747
4.51344
4.47337
4.42673
4.37297
4.31177
4.24286
4.16635
4.08254
3.99215
3.89606
3.79502
3.6899
3.58189
3.47246
3.36274
3.25381
3.14662
3.04192
2.94023
2.84193
2.74727
2.65626
2.56876
2.48463
2.40397
2.32666
2.25251
2.18142
2.11339
2.04836
1.98618
1.92664
1.86993
1.81601
1.76478
1.71621
1.67031
1.62697
1.58599
1.54725
1.51059
1.47596
1.44321
1.41231
1.38314
1.35562
1.32968
1.30523
1.28218
1.26045
1.23994
1.22058
1.20227
1.18493
1.16849
1.15287
1.13802
1.12389
1.11047
1.09779
1.08594
1.07514
1.06572
1.05782
0.0919424
0.2661
0.338322
0.389407
0.43159
0.469073
0.504036
0.537851
0.571463
0.605515
0.640424
0.676437
0.713667
0.752155
0.791892
0.832863
0.875058
0.918478
0.963137
1.00907
1.05632
1.10491
1.15489
1.20631
1.25918
1.31353
1.36937
1.42669
1.48548
1.54572
1.60735
1.67033
1.73458
1.80003
1.86659
1.93416
2.00266
2.07196
2.142
2.21265
2.28382
2.35541
2.42733
2.49948
2.57176
2.64408
2.71636
2.78851
2.86048
2.93217
3.0035
3.07443
3.14487
3.21475
3.284
3.35258
3.4204
3.4874
3.55353
3.61872
3.68291
3.74605
3.80811
3.86901
3.92872
3.98715
4.0443
4.10011
4.15452
4.20749
4.25897
4.30893
4.3573
4.40405
4.44913
4.49252
4.53416
4.57399
4.61203
4.64816
4.6824
4.71468
4.74499
4.77329
4.79955
4.82376
4.84594
4.86606
4.88415
4.90034
4.91455
4.9267
4.93694
4.94536
4.95199
4.95683
4.96011
4.96146
4.96227
4.96069
4.95669
4.95082
4.94305
4.93347
4.92217
4.90918
4.89444
4.87798
4.85974
4.83965
4.81759
4.79333
4.76662
4.7371
4.70435
4.66783
4.62698
4.58118
4.52982
4.47232
4.40832
4.3374
4.25949
4.17481
4.08401
3.98784
3.8872
3.78291
3.67603
3.56779
3.45931
3.35168
3.24583
3.14241
3.04202
2.94505
2.85174
2.76213
2.67618
2.59374
2.51477
2.43912
2.36655
2.29687
2.22994
2.16565
2.10387
2.04438
1.98724
1.93243
1.87998
1.82988
1.7822
1.73692
1.69393
1.65316
1.61449
1.5779
1.54322
1.51043
1.47944
1.45012
1.42244
1.39627
1.37154
1.34816
1.32602
1.30505
1.28515
1.26625
1.24825
1.2311
1.21475
1.19915
1.1843
1.17024
1.15706
1.14496
1.13418
1.1247
0.0975123
0.281761
0.357624
0.411426
0.455864
0.495238
0.531745
0.566767
0.601265
0.635933
0.671252
0.707552
0.745034
0.783821
0.823974
0.865535
0.908529
0.952986
0.998936
1.04642
1.09547
1.14613
1.19843
1.2524
1.30806
1.36542
1.42447
1.48521
1.5476
1.61162
1.67721
1.74431
1.81286
1.88278
1.95398
2.02638
2.09986
2.17433
2.2497
2.32585
2.40268
2.48009
2.55796
2.63621
2.71472
2.7934
2.87215
2.95087
3.02949
3.10791
3.18604
3.26381
3.34112
3.41789
3.49404
3.5695
3.64417
3.71798
3.79086
3.86271
3.93348
4.00308
4.07146
4.13854
4.20426
4.26855
4.33134
4.39259
4.45222
4.51017
4.56639
4.62082
4.6734
4.72408
4.77279
4.81949
4.86412
4.90664
4.94697
4.98506
5.02087
5.05433
5.08539
5.114
5.14011
5.1637
5.18475
5.20318
5.21905
5.23248
5.2433
5.25145
5.25705
5.26018
5.26103
5.25949
5.25562
5.24919
5.24213
5.23178
5.21828
5.20207
5.18331
5.16211
5.13856
5.11276
5.0848
5.05475
5.0227
4.98871
4.95282
4.91501
4.87522
4.83328
4.789
4.74196
4.69175
4.63772
4.57939
4.51633
4.44823
4.37477
4.29548
4.21052
4.12036
4.02539
3.92683
3.82526
3.72146
3.61648
3.51128
3.4071
3.3046
3.20447
3.10731
3.01362
2.92361
2.83735
2.75485
2.67597
2.60057
2.52843
2.45925
2.39275
2.32867
2.26683
2.207
2.14899
2.09277
2.03831
1.9857
1.93499
1.88631
1.83972
1.79522
1.75282
1.71244
1.67408
1.63765
1.6031
1.57036
1.53932
1.50994
1.48209
1.45571
1.43069
1.40694
1.38437
1.36289
1.34243
1.32288
1.30421
1.28636
1.26929
1.25301
1.23755
1.22301
1.20955
1.19733
1.18626
0.0999773
0.290631
0.36867
0.424235
0.470261
0.511074
0.548844
0.584925
0.620265
0.655567
0.691348
0.727987
0.765749
0.804815
0.845309
0.887313
0.930893
0.976096
1.02297
1.07157
1.12192
1.17406
1.22803
1.28386
1.34154
1.4011
1.46253
1.52579
1.59088
1.65774
1.72634
1.79662
1.86851
1.94195
2.01684
2.09311
2.17065
2.24936
2.32916
2.40993
2.49157
2.57397
2.65702
2.74063
2.82468
2.90907
2.99368
3.07843
3.16321
3.24793
3.33247
3.41673
3.50065
3.58409
3.66698
3.7492
3.83067
3.91128
3.99095
4.06956
4.14703
4.22327
4.29819
4.3717
4.44372
4.51417
4.58295
4.64999
4.71522
4.77856
4.83992
4.89925
4.95647
5.01152
5.0643
5.11476
5.16286
5.20849
5.2516
5.2921
5.32995
5.36506
5.39736
5.42678
5.45324
5.4767
5.49711
5.5144
5.52857
5.53973
5.54769
5.55231
5.55396
5.55264
5.54806
5.54025
5.52937
5.51533
5.50046
5.48164
5.45882
5.4324
5.4026
5.36957
5.33343
5.29431
5.25235
5.20772
5.16061
5.1112
5.05968
5.00625
4.95103
4.89411
4.83541
4.77466
4.71248
4.64824
4.58122
4.5111
4.43765
4.36044
4.27926
4.19405
4.10505
4.01249
3.917
3.81918
3.71965
3.61927
3.51879
3.41947
3.32197
3.22683
3.13455
3.046
2.96117
2.88008
2.80278
2.72916
2.65906
2.59219
2.52818
2.46665
2.40723
2.34959
2.29344
2.23851
2.1847
2.13196
2.08042
2.03017
1.98139
1.93425
1.88885
1.8453
1.80358
1.76377
1.7258
1.68968
1.65533
1.62269
1.5917
1.56226
1.53429
1.50769
1.48237
1.45825
1.43522
1.41322
1.39217
1.372
1.35267
1.33416
1.31646
1.29962
1.28371
1.26887
1.25519
1.24254
0.0996477
0.293217
0.372158
0.428636
0.475624
0.517417
0.556126
0.593068
0.629153
0.665059
0.701305
0.738291
0.776316
0.815602
0.856312
0.898568
0.942461
0.988065
1.03544
1.08464
1.13572
1.18871
1.24364
1.30055
1.35943
1.42031
1.48318
1.54801
1.6148
1.68349
1.75406
1.82646
1.90063
1.97651
2.05403
2.1331
2.21363
2.29554
2.37874
2.46311
2.54857
2.635
2.72231
2.81039
2.89914
2.98843
3.07817
3.16824
3.25854
3.34896
3.43938
3.5297
3.61981
3.70958
3.79891
3.88768
3.97578
4.06308
4.1495
4.23487
4.31911
4.40209
4.48371
4.56386
4.64242
4.71929
4.79437
4.86755
4.93874
5.00784
5.07476
5.13942
5.2017
5.26154
5.31884
5.37353
5.42553
5.47472
5.52106
5.56446
5.6048
5.64203
5.67604
5.70675
5.73406
5.75791
5.77821
5.79487
5.80788
5.81734
5.82296
5.82492
5.82331
5.81772
5.80812
5.79458
5.7772
5.75596
5.73363
5.70675
5.67503
5.63879
5.59829
5.55364
5.505
5.45251
5.39634
5.33671
5.27386
5.2081
5.13976
5.06918
4.99661
4.92227
4.84752
4.7716
4.69462
4.61675
4.53801
4.45821
4.37725
4.29479
4.21071
4.12473
4.03686
3.94711
3.85568
3.76292
3.66922
3.57522
3.48153
3.38897
3.2982
3.20976
3.12417
3.04198
2.96345
2.88874
2.81799
2.75102
2.68784
2.62791
2.57073
2.51589
2.4629
2.41128
2.36061
2.3105
2.26077
2.21131
2.16223
2.11364
2.06583
2.01904
1.97349
1.92938
1.88682
1.84594
1.80676
1.76931
1.73358
1.6995
1.66705
1.63614
1.60669
1.5786
1.55181
1.52621
1.50172
1.47826
1.45576
1.43416
1.41342
1.39351
1.37444
1.35624
1.33899
1.32277
1.30766
1.29348
0.0969571
0.290899
0.369574
0.426155
0.473481
0.515764
0.555038
0.592551
0.629165
0.665521
0.702119
0.739353
0.777532
0.8169
0.857639
0.899896
0.943784
0.989393
1.0368
1.08606
1.13724
1.19038
1.24551
1.30267
1.36187
1.42314
1.48646
1.55184
1.61925
1.68868
1.7601
1.83349
1.9088
1.98598
2.06496
2.14567
2.22804
2.31198
2.39744
2.48429
2.57246
2.66182
2.75232
2.84386
2.93632
3.02959
3.12356
3.2181
3.31313
3.40851
3.50414
3.59989
3.69564
3.79125
3.88661
3.98157
4.07601
4.16978
4.26276
4.35479
4.44575
4.53549
4.62387
4.71077
4.79604
4.87954
4.96117
5.04078
5.11825
5.19347
5.26631
5.33668
5.40443
5.46949
5.53174
5.59108
5.64742
5.70064
5.75065
5.79737
5.84067
5.88046
5.91665
5.9491
5.97773
6.00243
6.02311
6.03965
6.05202
6.06031
6.06431
6.06414
6.0595
6.05025
6.03629
6.01761
5.99427
5.96629
5.93685
5.90239
5.86228
5.81675
5.766
5.71017
5.64938
5.58378
5.51354
5.4389
5.36015
5.27765
5.1918
5.10286
5.01223
4.92032
4.82691
4.73283
4.6387
4.54503
4.45231
4.36067
4.27025
4.18091
4.09257
4.00488
3.91763
3.8306
3.74365
3.65676
3.57003
3.48377
3.39832
3.31418
3.23185
3.1518
3.07449
3.00036
2.92976
2.86289
2.79994
2.74085
2.6855
2.63356
2.58454
2.53794
2.4931
2.44926
2.40589
2.36244
2.31858
2.27408
2.229
2.18349
2.13787
2.09247
2.04765
2.00372
1.96092
1.91948
1.87949
1.84106
1.80422
1.76895
1.73525
1.70304
1.67228
1.64286
1.61472
1.58777
1.56192
1.53711
1.51326
1.49032
1.46826
1.44704
1.42667
1.40718
1.38863
1.37108
1.35458
1.33895
0.0923136
0.283894
0.36148
0.417565
0.464729
0.507095
0.546622
0.584467
0.621417
0.658063
0.694868
0.732206
0.770377
0.809624
0.850145
0.892098
0.93561
0.980786
1.02771
1.07646
1.1271
1.17968
1.23424
1.29083
1.34947
1.41019
1.47301
1.53793
1.60495
1.67405
1.74524
1.81848
1.89374
1.97101
2.05024
2.13136
2.21434
2.29909
2.38558
2.47369
2.56337
2.6545
2.747
2.84082
2.93584
3.03196
3.12907
3.22706
3.32585
3.42533
3.52535
3.62577
3.72647
3.82727
3.92807
4.02872
4.12905
4.22891
4.32815
4.4266
4.5241
4.62048
4.71558
4.80923
4.90128
4.99154
5.07988
5.16612
5.25013
5.33175
5.41083
5.48725
5.56085
5.63152
5.69912
5.76352
5.82463
5.8823
5.93642
5.98688
6.03358
6.07636
6.11514
6.14977
6.18014
6.20613
6.22763
6.24449
6.25668
6.26428
6.26713
6.26512
6.25803
6.24571
6.22799
6.20472
6.17595
6.14167
6.10546
6.06378
6.01572
5.96136
5.90084
5.83428
5.76176
5.68342
5.59943
5.51
5.41543
5.3159
5.21275
5.10655
4.99718
4.8855
4.77248
4.65912
4.54647
4.43546
4.32706
4.22178
4.12016
4.02231
3.92832
3.83784
3.75054
3.66593
3.58357
3.50308
3.42415
3.34672
3.27077
3.19646
3.12408
3.05389
2.98625
2.92152
2.86005
2.80211
2.74796
2.69767
2.65119
2.60828
2.5685
2.53124
2.49577
2.46125
2.42695
2.392
2.35582
2.31808
2.27871
2.2378
2.19573
2.15293
2.10985
2.06697
2.02465
1.98324
1.94294
1.90396
1.86638
1.83022
1.79554
1.76229
1.73042
1.69986
1.67055
1.64241
1.61536
1.58935
1.56429
1.54013
1.51686
1.49443
1.47287
1.45218
1.43241
1.41362
1.39581
1.37883
0.0863029
0.273558
0.34936
0.404452
0.451019
0.49305
0.532423
0.570223
0.607178
0.643821
0.680569
0.717761
0.755677
0.794547
0.834559
0.875873
0.918621
0.962916
1.00885
1.05651
1.10596
1.15727
1.21049
1.26568
1.32288
1.38211
1.44343
1.50685
1.57238
1.64004
1.70984
1.78177
1.85582
1.93199
2.01025
2.09057
2.17292
2.25725
2.34352
2.43167
2.52165
2.61337
2.70678
2.80179
2.89833
2.99627
3.09555
3.19605
3.29766
3.40026
3.50372
3.60792
3.71271
3.8179
3.92334
4.02893
4.13448
4.23981
4.34483
4.4493
4.55302
4.65579
4.75739
4.85768
4.95643
5.05344
5.14854
5.24154
5.33223
5.42046
5.50602
5.58877
5.66853
5.74513
5.81844
5.88828
5.95454
6.01705
6.07568
6.1303
6.18077
6.22696
6.26872
6.30593
6.33843
6.3661
6.3888
6.40636
6.41871
6.42594
6.4279
6.42452
6.41546
6.40053
6.37953
6.35218
6.31842
6.27818
6.2354
6.18673
6.13099
6.06811
5.99817
5.92122
5.83732
5.74657
5.64898
5.54485
5.43537
5.32051
5.20036
5.07559
4.94705
4.81578
4.68299
4.55004
4.41833
4.28924
4.16422
4.04425
3.93032
3.82289
3.72228
3.62821
3.54028
3.45782
3.38004
3.30623
3.23566
3.16781
3.10231
3.03895
2.97768
2.91856
2.86175
2.8075
2.75612
2.70794
2.66327
2.62236
2.58529
2.55196
2.52203
2.49492
2.46986
2.44594
2.42211
2.39726
2.37055
2.3414
2.30946
2.2748
2.23776
2.19886
2.15867
2.11781
2.0768
2.03613
1.99612
1.95709
1.9192
1.88254
1.84722
1.81321
1.7805
1.74905
1.71879
1.68967
1.66161
1.63457
1.60846
1.58325
1.55892
1.53543
1.51279
1.49102
1.47015
1.45021
1.43122
1.41301
0.0793938
0.260747
0.33432
0.388073
0.433713
0.47508
0.513969
0.551402
0.58805
0.624394
0.660805
0.697581
0.734969
0.773175
0.812371
0.852709
0.894314
0.937297
0.981757
1.02778
1.07545
1.12485
1.17603
1.22906
1.284
1.34091
1.39984
1.46083
1.52391
1.58913
1.65651
1.72607
1.79782
1.87178
1.94796
2.02633
2.1069
2.18963
2.27453
2.36153
2.4506
2.5417
2.63476
2.72974
2.82655
2.92511
3.02535
3.12715
3.23043
3.33506
3.44093
3.5479
3.65583
3.76457
3.87397
3.98386
4.09404
4.20434
4.31457
4.4245
4.53393
4.64263
4.75031
4.85683
4.96195
5.06545
5.1672
5.26689
5.36429
5.45919
5.55135
5.64059
5.72671
5.80949
5.88877
5.96435
6.03607
6.10375
6.16722
6.22634
6.28094
6.33086
6.37595
6.41605
6.45101
6.48067
6.50486
6.52341
6.53618
6.54322
6.54448
6.54013
6.52941
6.51217
6.4882
6.45711
6.41866
6.37269
6.32342
6.2678
6.20445
6.13316
6.05385
5.96649
5.87147
5.76888
5.65892
5.54149
5.41703
5.2858
5.14841
5.00561
4.85839
4.70799
4.55586
4.40365
4.25313
4.10614
3.9646
3.82999
3.70375
3.58671
3.47946
3.38179
3.29324
3.21296
3.13989
3.07293
3.01099
2.95316
2.89862
2.84684
2.79742
2.75014
2.70493
2.66189
2.62125
2.58333
2.54854
2.51725
2.48973
2.46609
2.44615
2.42948
2.41535
2.40286
2.39059
2.37713
2.36146
2.34256
2.31977
2.29302
2.26255
2.22892
2.19284
2.15506
2.11627
2.07712
2.03808
1.99959
1.9619
1.92519
1.88961
1.8552
1.82198
1.78992
1.75898
1.72912
1.70028
1.67242
1.64547
1.61939
1.59417
1.56978
1.54622
1.52351
1.50167
1.48073
1.46068
1.4414
0.0716629
0.245931
0.31703
0.369211
0.413681
0.454121
0.492248
0.529027
0.565078
0.600836
0.636626
0.672706
0.709283
0.746534
0.784605
0.82363
0.863723
0.904989
0.947527
0.991428
1.03678
1.08367
1.13218
1.18239
1.23437
1.2882
1.34396
1.4017
1.46149
1.52339
1.58744
1.65371
1.7222
1.79299
1.86609
1.9415
2.01926
2.09936
2.1818
2.26658
2.35366
2.44303
2.53465
2.62847
2.72445
2.82251
2.92258
3.02458
3.12843
3.23401
3.34121
3.4499
3.55996
3.67122
3.78353
3.89671
4.01057
4.12491
4.23955
4.35423
4.46872
4.5828
4.69621
4.80871
4.92003
5.0299
5.13808
5.2443
5.34828
5.44973
5.54839
5.64408
5.73655
5.82563
5.91105
5.99257
6.06999
6.14309
6.21167
6.27554
6.33453
6.38845
6.43712
6.48035
6.51796
6.5498
6.57567
6.59535
6.60869
6.61563
6.61629
6.61105
6.59875
6.57922
6.55231
6.51753
6.4744
6.42259
6.36656
6.3038
6.23269
6.15291
6.06456
5.96736
5.86148
5.74689
5.62369
5.4921
5.35241
5.20508
5.05075
4.89032
4.72491
4.55596
4.38517
4.2145
4.04614
3.88236
3.72558
3.57776
3.44073
3.31562
3.20317
3.10316
3.01504
2.93773
2.86991
2.81017
2.75709
2.70942
2.66602
2.62602
2.58871
2.55357
2.52029
2.48879
2.45918
2.43174
2.40691
2.38521
2.36709
2.35292
2.34274
2.33632
2.33317
2.33263
2.33245
2.3312
2.32788
2.32075
2.30872
2.29144
2.26905
2.2421
2.21138
2.1778
2.1422
2.10543
2.0681
2.03079
1.99387
1.95761
1.92223
1.88781
1.85444
1.82209
1.79078
1.76046
1.73109
1.70265
1.67507
1.64833
1.62242
1.59731
1.57301
1.54952
1.52687
1.50508
1.48412
1.46392
0.064428
0.229789
0.298176
0.348624
0.391761
0.431093
0.468255
0.504162
0.539387
0.574322
0.60925
0.644386
0.6799
0.715933
0.752605
0.790025
0.828295
0.867509
0.907764
0.949154
0.991775
1.03572
1.08109
1.12798
1.17649
1.2267
1.27872
1.33263
1.38852
1.44646
1.50655
1.56883
1.63339
1.70028
1.76954
1.84124
1.91539
1.99202
2.07117
2.15284
2.23703
2.32373
2.41294
2.50462
2.59874
2.69525
2.7941
2.89521
2.99852
3.10393
3.21133
3.32061
3.43165
3.54429
3.65838
3.77376
3.89021
4.00755
4.12557
4.244
4.36263
4.48118
4.5994
4.71701
4.8337
4.94919
5.06319
5.17541
5.28552
5.39325
5.49829
5.60034
5.69913
5.79436
5.88578
5.97311
6.05612
6.13451
6.20808
6.27662
6.33991
6.39774
6.44992
6.49621
6.53639
6.57029
6.59768
6.61834
6.63205
6.63861
6.63863
6.63216
6.61799
6.59587
6.56565
6.52684
6.47882
6.42102
6.35796
6.28752
6.2081
6.11925
6.02086
5.91283
5.79516
5.66789
5.53109
5.38501
5.22999
5.06657
4.89552
4.71785
4.53489
4.34831
4.16014
3.97273
3.7887
3.61083
3.44201
3.28456
3.14056
3.01123
2.89718
2.79804
2.71294
2.64055
2.57928
2.52751
2.48359
2.44608
2.41361
2.38507
2.35952
2.33619
2.31454
2.29432
2.27551
2.25834
2.24325
2.23081
2.22169
2.21648
2.21527
2.21822
2.22529
2.23583
2.24811
2.2601