/*--------------------------------*- C++ -*----------------------------------*\
  =========                 |
  \\      /  F ield         | OpenFOAM: The Open Source CFD Toolbox
   \\    /   O peration     | Website:  https://openfoam.org
    \\  /    A nd           | Version:  7
     \\/     M anipulation  |
\*---------------------------------------------------------------------------*/
FoamFile
{
    version     2.0;
    format      ascii;
    class       volScalarField;
    location    "200";
    object      nut;
}
// * * * * * * * * * * * * * * * * * * * * * * * * * * * * * * * * * * * * * //

dimensions      [0 2 -1 0 0 0 0];

internalField   nonuniform List<scalar> 
48900
(
0.000143055
8.81833e-06
7.61638e-06
7.66697e-06
9.04192e-06
1.11117e-05
1.28744e-05
1.40623e-05
1.4779e-05
1.52058e-05
1.54781e-05
1.56721e-05
1.58238e-05
1.59526e-05
1.60649e-05
1.61618e-05
1.62527e-05
1.63618e-05
0.000681344
0.000122001
8.83052e-05
6.77926e-05
5.89062e-05
5.56182e-05
5.4989e-05
5.5564e-05
5.66953e-05
5.81133e-05
5.96956e-05
6.1352e-05
6.30368e-05
6.47183e-05
6.63693e-05
6.79678e-05
6.95072e-05
7.09801e-05
0.000867825
0.000386168
0.000257685
0.000195563
0.000155429
0.000125948
0.000104735
8.98869e-05
7.9754e-05
7.29612e-05
6.85293e-05
6.57749e-05
6.42309e-05
6.35728e-05
6.3569e-05
6.40448e-05
6.48636e-05
6.58906e-05
0.000860589
0.00070216
0.000532835
0.000427765
0.000357931
0.000306243
0.000265749
0.000233191
0.000206832
0.000185388
0.000167907
0.000153573
0.000141753
0.000131988
0.000123786
0.000116955
0.000111263
0.000106517
0.000853386
0.00082621
0.000740061
0.000651214
0.000577767
0.000518055
0.000468923
0.000427702
0.000392671
0.000362668
0.000336837
0.00031449
0.000295067
0.0002781
0.000263216
0.000250117
0.000238569
0.000228345
0.000852143
0.000848522
0.000827031
0.000784001
0.000735655
0.000688843
0.000645971
0.000607407
0.000572892
0.000542031
0.000514429
0.00048972
0.000467573
0.000447697
0.000429832
0.000413772
0.000399358
0.000386442
0.000851903
0.000851699
0.000847574
0.000835928
0.000815113
0.000789725
0.000762595
0.000735457
0.000709224
0.000684342
0.000661005
0.000639266
0.000619108
0.000600471
0.000583284
0.000567477
0.000553007
0.000539897
0.000851895
0.000851669
0.000851178
0.000848781
0.000842939
0.000833656
0.000821166
0.000806881
0.00079153
0.000775776
0.00076003
0.000744582
0.000729621
0.000715268
0.000701596
0.000688657
0.000676502
0.000665242
0.000851894
0.000851574
0.000851338
0.000850923
0.000849752
0.000847258
0.000843153
0.000837594
0.000830754
0.000823023
0.000814619
0.000805803
0.000796803
0.000787748
0.000778767
0.000769954
0.000761402
0.000753229
0.000851891
0.00085154
0.000851241
0.000850989
0.000850681
0.000850109
0.000849062
0.000847412
0.000845092
0.000842153
0.00083865
0.00083466
0.000830318
0.000825688
0.000820864
0.00081592
0.000810918
0.000805868
0.000851888
0.000851517
0.000851184
0.000850892
0.000850631
0.000850366
0.000850034
0.000849561
0.000848887
0.000847968
0.000846786
0.00084534
0.000843647
0.000841731
0.000839622
0.000837353
0.000834964
0.000832514
0.000851887
0.0008515
0.000851148
0.000850829
0.00085054
0.000850276
0.000850023
0.000849763
0.000849471
0.000849124
0.000848699
0.000848182
0.000847562
0.000846838
0.000846009
0.000845084
0.000844072
0.000842992
0.000851885
0.000851489
0.000851124
0.00085079
0.000850483
0.000850198
0.000849934
0.000849685
0.000849445
0.000849205
0.000848956
0.000848689
0.000848396
0.00084807
0.000847706
0.000847303
0.000846859
0.000846379
0.000851883
0.00085148
0.000851105
0.000850758
0.000850437
0.000850137
0.000849857
0.000849594
0.000849345
0.00084911
0.000848884
0.000848666
0.000848451
0.000848237
0.000848021
0.000847799
0.000847569
0.000847332
0.000851882
0.000851473
0.000851089
0.000850733
0.0008504
0.00085009
0.000849798
0.000849523
0.000849262
0.000849015
0.00084878
0.000848556
0.000848342
0.000848136
0.000847938
0.000847746
0.000847559
0.000847376
0.000851882
0.000851467
0.000851078
0.000850714
0.000850374
0.000850054
0.000849754
0.00084947
0.0008492
0.000848944
0.0008487
0.000848467
0.000848245
0.000848031
0.000847827
0.000847631
0.000847442
0.00084726
0.000851881
0.000851464
0.00085107
0.000850701
0.000850354
0.000850029
0.000849722
0.000849432
0.000849156
0.000848894
0.000848644
0.000848406
0.000848178
0.000847959
0.000847749
0.000847549
0.000847356
0.00084717
0.000851881
0.000851461
0.000851065
0.000850692
0.000850342
0.000850013
0.000849702
0.000849408
0.000849128
0.000848863
0.00084861
0.000848368
0.000848137
0.000847916
0.000847704
0.000847501
0.000847307
0.00084712
0.000851881
0.00085146
0.000851063
0.000850689
0.000850338
0.000850007
0.000849695
0.000849399
0.000849118
0.000848852
0.000848597
0.000848355
0.000848123
0.000847902
0.00084769
0.000847488
0.000847294
0.000847109
0.000851881
0.000851461
0.000851065
0.000850694
0.000850344
0.000850016
0.000849706
0.000849412
0.000849134
0.000848869
0.000848617
0.000848376
0.000848147
0.000847928
0.000847719
0.00084752
0.000847329
0.000847147
0.000851882
0.000851464
0.000851072
0.000850705
0.00085036
0.000850037
0.000849731
0.000849443
0.000849169
0.000848909
0.000848661
0.000848425
0.000848201
0.000847986
0.000847781
0.000847586
0.000847398
0.000847219
0.000851883
0.00085147
0.000851084
0.000850724
0.000850388
0.000850073
0.000849777
0.000849497
0.000849232
0.000848978
0.000848736
0.000848501
0.000848271
0.000848045
0.000847821
0.000847595
0.000847367
0.000847135
0.000851885
0.00085148
0.000851104
0.000850757
0.000850436
0.000850136
0.000849851
0.000849567
0.000849271
0.000848948
0.000848584
0.000848169
0.000847694
0.000847155
0.000846552
0.000845886
0.000845158
0.000844372
0.000851892
0.000851495
0.000851138
0.000850816
0.000850499
0.000850115
0.000849566
0.000848767
0.000847661
0.000846222
0.000844457
0.000842385
0.000840042
0.000837467
0.000834702
0.000831784
0.000828748
0.000825617
0.000851921
0.000851534
0.000851206
0.000850641
0.000849332
0.000846701
0.000842752
0.000837482
0.000831062
0.000823947
0.000816202
0.000808093
0.000799782
0.000791395
0.000783029
0.000774755
0.000766623
0.00075865
0.000852163
0.000851743
0.000849742
0.000843005
0.000831132
0.000814698
0.000796082
0.000776484
0.000756766
0.00073742
0.000718709
0.000700771
0.000683672
0.000667436
0.000652065
0.000637539
0.000623825
0.000610866
0.000854661
0.000847087
0.00082144
0.000777212
0.000730102
0.000685822
0.000645819
0.000609946
0.00057767
0.000548469
0.00052194
0.000497781
0.000475754
0.000455662
0.000437328
0.000420586
0.00040528
0.000391252
0.000865917
0.000775124
0.000646694
0.000551667
0.00048404
0.000431842
0.000389367
0.000353468
0.000322485
0.000295592
0.000272256
0.000252049
0.000234584
0.000219497
0.000206451
0.000195161
0.000185348
0.000176811
0.000583443
0.000421711
0.000302163
0.000244313
0.000205179
0.00017477
0.000150701
0.000132166
0.000118129
0.000107716
0.000100092
9.45558e-05
9.05666e-05
8.77261e-05
8.57444e-05
8.44111e-05
8.35728e-05
8.31155e-05
1.80953e-05
0.000109925
8.46217e-05
7.4616e-05
7.40804e-05
7.5615e-05
7.68382e-05
7.72984e-05
7.72023e-05
7.68573e-05
7.64836e-05
7.61971e-05
7.60416e-05
7.60204e-05
7.61182e-05
7.63135e-05
7.6584e-05
7.69092e-05
3.39023e-07
4.46318e-06
8.56422e-06
1.18155e-05
1.44666e-05
1.6754e-05
1.89038e-05
2.12674e-05
2.40056e-05
2.73413e-05
3.14722e-05
3.65572e-05
4.26161e-05
4.96322e-05
5.74715e-05
6.59272e-05
7.48048e-05
8.38684e-05
9.29798e-05
0.000101976
0.000110801
0.000119445
0.000127863
0.000136096
0.000144175
0.000152024
0.000159603
0.000166792
0.000173419
0.000179283
0.000184207
0.000188118
0.000191124
0.000193322
0.000194483
0.000195802
0.000196347
0.000197816
0.000202148
0.000205622
0.000207439
0.00020083
0.000181314
3.92477e-05
0.000195284
0.000192315
0.000195593
0.000201333
0.000216245
0.000213346
0.000216373
0.000221608
0.000223939
0.000216031
0.000215674
4.6131e-05
4.74146e-05
4.80089e-05
4.84662e-05
4.89349e-05
4.94049e-05
4.98771e-05
5.03503e-05
5.08249e-05
5.13012e-05
5.17798e-05
5.22611e-05
5.27454e-05
5.3233e-05
5.3724e-05
5.4218e-05
5.4715e-05
5.52146e-05
5.5711e-05
5.6211e-05
5.67179e-05
5.72253e-05
5.7722e-05
5.8231e-05
5.87323e-05
5.9233e-05
5.97293e-05
6.02229e-05
6.07097e-05
6.11904e-05
6.16564e-05
6.21209e-05
6.25707e-05
6.29959e-05
6.34223e-05
6.38402e-05
6.42243e-05
6.45852e-05
6.49269e-05
6.52318e-05
6.55082e-05
6.57602e-05
6.60022e-05
6.62216e-05
6.64138e-05
6.65725e-05
6.67116e-05
6.68147e-05
6.68906e-05
6.68929e-05
6.68871e-05
6.69319e-05
6.68411e-05
6.67281e-05
6.65742e-05
6.63681e-05
6.61272e-05
6.58228e-05
6.54786e-05
6.50699e-05
6.46221e-05
6.40992e-05
6.35248e-05
6.29164e-05
6.22977e-05
6.16364e-05
6.07118e-05
5.89067e-05
5.54391e-05
4.62828e-05
2.77155e-05
2.06584e-05
1.97842e-05
1.61605e-05
1.24933e-05
1.0624e-05
9.67413e-06
1.05538e-05
1.28384e-05
1.61412e-05
1.74247e-05
1.74488e-05
2.35935e-05
2.96023e-05
3.17915e-05
0.000169721
0.000188479
0.000207469
0.00020262
0.000246996
0.000247962
0.000230049
0.00022161
0.00020427
0.000191191
0.000189992
0.000188756
0.000185118
0.000179794
0.000173739
0.000167551
0.000161513
0.000155747
0.00015029
0.000145075
0.00014026
0.000135767
0.000131563
0.000127647
0.000124025
0.000120663
0.000117519
0.000114638
0.000111938
0.000109431
0.000107099
0.000104925
0.00010289
0.000100977
9.91698e-05
9.74132e-05
9.57259e-05
9.40721e-05
9.24327e-05
9.03369e-05
1.08578e-06
6.09641e-05
0.0001242
0.000168677
0.000198977
0.000219245
0.000232706
0.000242116
0.000249836
0.000257411
0.000265671
0.000275003
0.000285543
0.000297392
0.000310697
0.000325428
0.000341178
0.00035769
0.00037476
0.000392199
0.000409766
0.000427335
0.00044477
0.000461983
0.000478931
0.000495611
0.00051206
0.000528266
0.000544106
0.000559337
0.000573506
0.000586028
0.000596359
0.00060428
0.000610204
0.000615402
0.000621181
0.000628205
0.000632928
0.000629055
0.000617808
0.000594374
0.000565487
0.000582993
0.000627349
0.00063665
0.000647276
0.000671479
0.000688441
0.00068412
0.000682657
0.000684148
0.000689113
0.000689186
0.000682816
0.000674504
0.000680863
0.000686389
0.000691708
0.000696923
0.000702065
0.000707014
0.000711874
0.000716697
0.000721364
0.000725985
0.000730585
0.000735186
0.00073981
0.000744431
0.000749146
0.000753985
0.000758883
0.000763893
0.000769069
0.000774421
0.000779925
0.000785676
0.000791724
0.000797975
0.000804496
0.000811335
0.000818491
0.000826032
0.000833877
0.000842104
0.000850727
0.000859801
0.000869289
0.000879221
0.000889698
0.000900405
0.000911382
0.000922521
0.000933612
0.000944677
0.000955904
0.000967476
0.000979318
0.000991384
0.00100382
0.0010165
0.00102927
0.00104213
0.00105509
0.00106798
0.00108067
0.00109323
0.00110538
0.00111723
0.00112834
0.00113874
0.00114776
0.00115628
0.00116313
0.00116864
0.00117258
0.00117483
0.00117518
0.00117298
0.00116702
0.00115547
0.00113577
0.00110578
0.00105728
0.00102081
0.000996326
0.000976526
0.000975887
0.000973568
0.000953579
0.000934284
0.000912765
0.000884669
0.000844977
0.000815226
0.000798091
0.000799942
0.000506222
0.000527939
0.000672259
0.000797974
0.000819994
0.000714914
0.000823351
0.000853923
0.000848863
0.000829323
0.000791685
0.000755816
0.000748863
0.000745561
0.000739606
0.000729878
0.000717568
0.000704184
0.000690807
0.000677917
0.000665638
0.000653951
0.0006428
0.000632243
0.00062232
0.000612931
0.000604142
0.000595916
0.000588177
0.000580895
0.000574063
0.0005676
0.000561475
0.000555648
0.000550063
0.000544569
0.000539237
0.00053377
0.000528066
0.000521771
0.000514366
0.000503565
2.11883e-06
9.53965e-05
0.000192918
0.000265541
0.000318003
0.000355327
0.000381969
0.000401779
0.000417908
0.000432749
0.000447886
0.000464213
0.000482141
0.000501741
0.000522914
0.000545479
0.000569319
0.000594269
0.000620101
0.000646396
0.000672895
0.00069942
0.000725805
0.000751954
0.000777754
0.000803227
0.000828396
0.00085333
0.00087803
0.000902315
0.000925777
0.000947797
0.000967753
0.000985316
0.00100088
0.00101569
0.00103167
0.0010503
0.00107131
0.00109152
0.00110723
0.00111935
0.00113335
0.00115332
0.00117414
0.0011936
0.00121393
0.00123373
0.00125061
0.00126535
0.00128108
0.00129739
0.0013124
0.00132556
0.00133765
0.00135054
0.00136444
0.00137805
0.00139133
0.00140433
0.00141705
0.00142954
0.00144185
0.00145392
0.00146588
0.00147768
0.0014894
0.00150106
0.00151265
0.00152427
0.00153583
0.00154749
0.00155917
0.00157093
0.00158278
0.00159473
0.00160686
0.00161908
0.00163152
0.00164413
0.00165696
0.00167005
0.00168335
0.00169694
0.00171082
0.00172497
0.00173946
0.00175427
0.00176938
0.00178488
0.00180071
0.00181673
0.00183298
0.00184938
0.00186594
0.00188273
0.0018998
0.00191715
0.00193473
0.00195255
0.00197056
0.00198869
0.00200688
0.00202499
0.00204295
0.00206065
0.00207789
0.00209461
0.00211058
0.00212579
0.00213975
0.00215221
0.00216272
0.00217192
0.00217867
0.00218296
0.00218457
0.00218324
0.00217871
0.00217063
0.00215838
0.002141
0.00211669
0.00208214
0.00203365
0.00197788
0.00192872
0.00188957
0.00184827
0.00180029
0.0017513
0.00171234
0.00167968
0.00165241
0.00162444
0.00159351
0.00156282
0.0015333
0.00140365
0.00136052
0.00141101
0.00142756
0.00141539
0.00136553
0.00138599
0.00139564
0.00138117
0.00136023
0.00132972
0.00129664
0.0012802
0.00127283
0.00126522
0.00125359
0.0012383
0.00122108
0.00120336
0.00118592
0.001169
0.00115269
0.00113704
0.0011221
0.00110788
0.00109434
0.00108149
0.00106929
0.00105769
0.00104669
0.00103618
0.00102612
0.00101648
0.00100718
0.000998093
0.000989202
0.000980339
0.000971382
0.000962098
0.000952077
0.000940691
0.000926547
3.30378e-06
0.000125557
0.000249782
0.000342695
0.000410813
0.000460575
0.000497496
0.000526151
0.000550209
0.000572399
0.000594586
0.000617859
0.000642757
0.000669446
0.000697874
0.000727893
0.000759304
0.000791851
0.000825283
0.000859326
0.000893724
0.000928243
0.000962677
0.00099683
0.00103062
0.00106407
0.00109723
0.00113027
0.00116324
0.00119614
0.0012288
0.00126095
0.00129221
0.00132238
0.00135158
0.00138034
0.0014095
0.00143984
0.0014714
0.0015033
0.00153407
0.00156305
0.00159088
0.00161836
0.00164559
0.00167254
0.00169916
0.00172519
0.00175049
0.00177523
0.00179969
0.00182376
0.00184711
0.00186965
0.00189153
0.00191298
0.00193403
0.00195456
0.00197462
0.00199423
0.00201341
0.00203222
0.00205068
0.00206885
0.0020867
0.00210434
0.00212174
0.00213893
0.00215597
0.00217285
0.00218963
0.00220628
0.00222283
0.0022393
0.00225569
0.00227201
0.00228831
0.00230456
0.00232082
0.00233704
0.00235328
0.00236949
0.00238574
0.00240198
0.00241828
0.00243458
0.00245096
0.00246739
0.00248388
0.00250046
0.00251716
0.00253387
0.00255064
0.00256744
0.00258429
0.00260123
0.00261828
0.00263537
0.0026527
0.00266987
0.00268697
0.00270406
0.002721
0.00273776
0.00275424
0.00277033
0.00278595
0.00280093
0.00281508
0.0028283
0.00284042
0.00285061
0.00285923
0.00286599
0.00287028
0.0028719
0.00287053
0.00286587
0.00285769
0.00284569
0.00282955
0.00280878
0.00278243
0.00274841
0.00270432
0.0026522
0.00260147
0.00255364
0.00250178
0.00244567
0.00239089
0.00234243
0.00229994
0.00226235
0.00222705
0.00218999
0.0021512
0.00211305
0.00206125
0.00202071
0.00199693
0.00196285
0.00192429
0.00188736
0.00186992
0.00185192
0.00182565
0.00179958
0.00177294
0.00174568
0.00172649
0.00171414
0.0017024
0.00168766
0.00166981
0.00165031
0.00163024
0.00161039
0.00159102
0.00157228
0.00155425
0.00153691
0.00152027
0.00150427
0.00148897
0.00147431
0.00146023
0.00144673
0.00143371
0.00142114
0.00140897
0.00139709
0.00138545
0.00137396
0.00136249
0.00135093
0.00133908
0.00132665
0.00131321
0.00129714
4.49396e-06
0.000150482
0.000298143
0.00040883
0.000490685
0.000551431
0.000597542
0.000634206
0.000665462
0.000694292
0.000722746
0.00075208
0.000782948
0.000815611
0.000850062
0.00088618
0.000923743
0.000962518
0.00100225
0.0010427
0.00108361
0.00112477
0.00116599
0.00120712
0.00124811
0.00128894
0.0013297
0.00137045
0.00141132
0.00145233
0.00149346
0.00153458
0.0015755
0.00161611
0.00165631
0.00169618
0.0017359
0.00177561
0.00181531
0.00185474
0.00189354
0.00193139
0.00196825
0.00200424
0.00203952
0.00207414
0.00210812
0.00214141
0.00217403
0.00220594
0.00223718
0.00226775
0.00229759
0.00232668
0.00235506
0.00238272
0.00240969
0.002436
0.00246164
0.00248665
0.0025111
0.00253498
0.00255834
0.00258122
0.00260365
0.00262562
0.00264719
0.00266839
0.0026892
0.00270967
0.00272981
0.00274962
0.00276912
0.00278831
0.0028072
0.00282581
0.00284412
0.00286214
0.00287989
0.00289732
0.00291448
0.00293134
0.00294788
0.00296412
0.00298007
0.00299569
0.00301101
0.00302606
0.0030408
0.00305534
0.00306964
0.00308369
0.00309754
0.00311117
0.00312468
0.00313802
0.0031512
0.00316424
0.00317744
0.00319021
0.00320264
0.00321484
0.00322679
0.00323844
0.0032498
0.00326079
0.00327133
0.00328131
0.00329063
0.00329926
0.00330679
0.00331297
0.0033179
0.00332108
0.00332217
0.00332092
0.00331696
0.00330999
0.00329966
0.00328572
0.00326785
0.00324574
0.00321897
0.00318676
0.00314833
0.00310444
0.00305823
0.00301072
0.00296018
0.00290716
0.00285441
0.00280422
0.00275706
0.00271271
0.00267023
0.00262776
0.00258467
0.00254214
0.00250011
0.00245958
0.00241759
0.00237246
0.00232885
0.0022908
0.00225917
0.00222808
0.00219622
0.00216734
0.00214104
0.00211592
0.00209494
0.00207785
0.00206145
0.00204348
0.00202367
0.00200275
0.00198151
0.00196042
0.00193973
0.00191958
0.00190005
0.00188115
0.00186292
0.00184534
0.00182843
0.00181213
0.00179642
0.00178123
0.00176652
0.00175221
0.00173824
0.00172454
0.00171103
0.00169764
0.00168429
0.00167085
0.00165724
0.00164326
0.00162861
0.00161153
5.58098e-06
0.000170866
0.000338346
0.000464736
0.000559199
0.000630259
0.000685103
0.000729354
0.000767333
0.000802227
0.000836258
0.000870819
0.000906715
0.000944299
0.000983642
0.00102466
0.00106717
0.00111097
0.00115582
0.00120151
0.00124782
0.00129457
0.00134162
0.00138883
0.00143616
0.00148357
0.0015311
0.00157879
0.00162668
0.00167479
0.0017231
0.00177154
0.00182
0.00186836
0.00191651
0.00196437
0.00201189
0.00205903
0.00210571
0.00215184
0.00219729
0.00224198
0.00228583
0.00232885
0.00237105
0.00241244
0.00245302
0.00249278
0.0025317
0.00256977
0.00260699
0.00264335
0.00267884
0.00271346
0.00274721
0.0027801
0.00281211
0.00284329
0.00287365
0.00290318
0.00293194
0.00295995
0.00298724
0.00301382
0.00303972
0.00306496
0.00308955
0.00311352
0.00313688
0.00315964
0.00318181
0.00320339
0.00322441
0.00324484
0.0032647
0.00328396
0.00330266
0.00332076
0.00333824
0.00335512
0.00337137
0.00338698
0.00340193
0.00341625
0.00342988
0.00344284
0.00345515
0.00346681
0.00347783
0.00348824
0.00349808
0.00350732
0.00351602
0.00352421
0.00353195
0.00353923
0.00354609
0.00355257
0.0035592
0.00356513
0.00357046
0.00357536
0.00357983
0.00358393
0.00358777
0.00359132
0.00359452
0.00359738
0.00359995
0.00360196
0.00360347
0.0036043
0.00360426
0.00360311
0.00360058
0.0035964
0.00359022
0.00358169
0.00357048
0.00355622
0.00353863
0.00351736
0.00349215
0.0034627
0.0034289
0.00339101
0.00334995
0.0033063
0.00326011
0.00321209
0.00316349
0.00311543
0.00306845
0.00302273
0.00297812
0.00293411
0.00289038
0.00284715
0.00280485
0.00276303
0.00272046
0.00267762
0.00263644
0.00259844
0.00256325
0.00252941
0.002497
0.00246741
0.00244065
0.00241572
0.00239318
0.00237279
0.00235315
0.00233305
0.00231219
0.00229082
0.0022693
0.00224789
0.00222678
0.00220607
0.00218584
0.00216612
0.00214698
0.0021284
0.0021104
0.00209296
0.00207605
0.0020596
0.00204359
0.00202795
0.00201261
0.00199752
0.00198263
0.00196783
0.00195311
0.00193835
0.00192356
0.00190862
0.00189335
0.00187622
6.49067e-06
0.000186681
0.000370287
0.000510248
0.000616094
0.000696802
0.000759971
0.000811498
0.000855879
0.000896449
0.000935552
0.000974739
0.00101494
0.00105662
0.00109996
0.00114493
0.00119142
0.00123925
0.00128823
0.00133817
0.0013889
0.00144027
0.00149214
0.00154442
0.00159706
0.00164999
0.00170321
0.00175671
0.00181049
0.00186452
0.00191878
0.00197317
0.00202761
0.002082
0.00213623
0.0021902
0.00224381
0.00229696
0.00234961
0.00240164
0.002453
0.0025036
0.00255342
0.0026024
0.00265053
0.00269776
0.00274412
0.00278953
0.002834
0.00287752
0.00292006
0.00296159
0.00300213
0.00304164
0.00308014
0.00311762
0.00315408
0.00318951
0.00322394
0.00325738
0.00328982
0.0033213
0.00335184
0.00338143
0.00341009
0.00343786
0.00346472
0.00349069
0.00351579
0.00354
0.00356334
0.00358581
0.00360741
0.00362813
0.00364798
0.00366691
0.00368495
0.00370208
0.00371828
0.00373351
0.00374778
0.00376108
0.00377336
0.00378464
0.00379489
0.00380408
0.00381225
0.00381939
0.00382549
0.00383062
0.00383478
0.00383797
0.00384022
0.00384163
0.00384221
0.00384202
0.00384116
0.00383959
0.00383821
0.00383588
0.00383263
0.00382882
0.00382433
0.00381925
0.00381403
0.00380866
0.00380303
0.00379723
0.00379146
0.00378563
0.0037798
0.00377392
0.0037679
0.0037616
0.00375486
0.00374741
0.00373897
0.00372918
0.00371765
0.00370401
0.00368792
0.00366896
0.00364681
0.00362124
0.00359218
0.00355973
0.00352416
0.00348581
0.00344502
0.00340241
0.00335874
0.00331475
0.00327096
0.00322765
0.00318496
0.00314289
0.00310142
0.00306054
0.00302035
0.00298078
0.00294169
0.00290329
0.00286622
0.0028309
0.00279737
0.00276533
0.00273482
0.00270631
0.00267995
0.00265529
0.00263219
0.00261046
0.00258947
0.00256861
0.0025476
0.00252644
0.00250523
0.0024841
0.00246313
0.00244243
0.00242206
0.00240206
0.00238252
0.00236341
0.00234478
0.00232658
0.00230883
0.00229147
0.00227447
0.00225778
0.00224137
0.00222516
0.00220914
0.00219324
0.00217744
0.00216172
0.00214605
0.00213046
0.00211483
0.00209791
7.17539e-06
0.000198014
0.000393998
0.000545232
0.000661069
0.000750593
0.000821567
0.00088
0.000930475
0.000976397
0.00102021
0.00106357
0.00110754
0.00115272
0.00119937
0.00124756
0.00129724
0.0013483
0.00140057
0.00145391
0.00150819
0.00156325
0.00161901
0.00167538
0.00173226
0.00178962
0.00184742
0.0019056
0.00196412
0.00202295
0.00208201
0.00214124
0.00220053
0.00225981
0.00231896
0.00237788
0.00243649
0.00249468
0.00255237
0.00260949
0.00266595
0.00272171
0.00277669
0.00283085
0.00288413
0.00293651
0.00298793
0.00303837
0.00308779
0.00313617
0.00318347
0.0032297
0.00327479
0.00331875
0.00336155
0.0034032
0.00344367
0.00348296
0.00352107
0.00355799
0.00359373
0.00362829
0.00366168
0.0036939
0.00372495
0.00375482
0.00378355
0.00381111
0.0038375
0.00386274
0.00388681
0.00390972
0.00393145
0.00395199
0.00397132
0.00398946
0.00400638
0.00402203
0.00403645
0.00404956
0.00406137
0.00407185
0.00408099
0.00408875
0.00409513
0.0041001
0.00410366
0.0041058
0.00410653
0.00410588
0.00410386
0.00410046
0.00409575
0.0040898
0.00408265
0.00407432
0.00406517
0.00405486
0.00404467
0.00403363
0.0040211
0.00400768
0.00399343
0.00397837
0.00396307
0.00394751
0.00393188
0.00391634
0.00390103
0.00388611
0.0038717
0.0038579
0.00384475
0.00383225
0.00382034
0.00380885
0.00379757
0.00378621
0.00377429
0.00376142
0.00374729
0.00373134
0.00371308
0.00369222
0.00366856
0.00364196
0.00361263
0.00358062
0.00354615
0.00350968
0.00347181
0.00343327
0.00339454
0.00335587
0.00331751
0.00327964
0.00324238
0.00320578
0.00316994
0.00313489
0.0031007
0.00306746
0.00303534
0.00300449
0.00297494
0.0029466
0.00291942
0.00289349
0.00286892
0.00284555
0.00282323
0.00280181
0.00278098
0.00276045
0.00273998
0.00271951
0.002699
0.00267853
0.00265809
0.00263778
0.00261767
0.00259779
0.0025782
0.00255893
0.00253998
0.00252136
0.00250306
0.00248506
0.00246734
0.00244987
0.00243261
0.00241553
0.0023986
0.00238182
0.00236516
0.00234864
0.0023323
0.00231619
0.00230025
0.00228345
7.6146e-06
0.000205138
0.000409813
0.000569898
0.000694161
0.000791498
0.0008696
0.00093446
0.000990653
0.0010416
0.0010898
0.00113699
0.00118431
0.0012325
0.00128194
0.00133277
0.00138502
0.00143862
0.00149348
0.00154947
0.00160649
0.00166443
0.0017232
0.00178275
0.00184295
0.00190374
0.00196507
0.00202688
0.00208912
0.00215172
0.0022146
0.00227768
0.00234087
0.00240411
0.00246727
0.00253027
0.00259301
0.00265539
0.00271735
0.00277878
0.00283962
0.00289978
0.00295921
0.00301786
0.00307564
0.00313252
0.00318843
0.00324334
0.0032972
0.00334997
0.00340161
0.00345209
0.00350137
0.00354942
0.00359622
0.00364173
0.00368595
0.00372884
0.00377041
0.00381061
0.00384945
0.00388691
0.00392299
0.00395768
0.00399096
0.00402284
0.00405329
0.00408232
0.00410992
0.00413607
0.00416077
0.004184
0.00420576
0.00422603
0.00424478
0.00426202
0.00427771
0.00429184
0.00430438
0.00431531
0.00432461
0.00433224
0.00433819
0.00434242
0.00434492
0.00434566
0.00434463
0.0043418
0.00433718
0.00433079
0.00432262
0.00431267
0.004301
0.00428767
0.00427298
0.00425679
0.00423914
0.00421996
0.00420109
0.00418081
0.00415868
0.00413517
0.00411066
0.00408534
0.00405947
0.00403326
0.00400694
0.00398078
0.00395501
0.00392993
0.00390578
0.00388282
0.00386125
0.00384123
0.00382288
0.00380612
0.00379085
0.00377664
0.00376319
0.00375027
0.00373766
0.00372493
0.00371091
0.0036954
0.00367788
0.00365763
0.00363537
0.00361064
0.0035834
0.00355394
0.0035227
0.00349075
0.00345827
0.00342556
0.00339289
0.0033606
0.0033288
0.00329766
0.00326738
0.00323802
0.00320964
0.00318226
0.00315591
0.00313059
0.00310626
0.00308279
0.00306005
0.00303795
0.00301651
0.00299565
0.0029753
0.00295539
0.00293581
0.00291638
0.00289701
0.0028776
0.00285811
0.00283855
0.00281893
0.00279932
0.00277975
0.00276027
0.00274093
0.00272175
0.00270276
0.00268397
0.00266537
0.00264698
0.00262877
0.00261073
0.00259282
0.00257507
0.00255744
0.00253995
0.0025226
0.00250545
0.00248855
0.00247198
0.00245573
0.00243894
7.81127e-06
0.000208436
0.00041831
0.000584895
0.000715846
0.000819818
0.000904225
0.000974915
0.00103636
0.00109195
0.00114419
0.00119491
0.00124525
0.00129597
0.00134766
0.00140058
0.00145481
0.00151037
0.00156719
0.0016252
0.00168432
0.00174445
0.00180552
0.00186747
0.0019301
0.00199339
0.0020573
0.0021218
0.00218687
0.00225232
0.00231809
0.00238412
0.00245034
0.00251669
0.00258306
0.00264932
0.00271539
0.00278119
0.00284664
0.00291165
0.00297614
0.00304003
0.00310324
0.00316572
0.0032274
0.0032882
0.00334807
0.00340694
0.00346478
0.00352151
0.0035771
0.00363148
0.00368464
0.00373651
0.00378705
0.00383624
0.00388402
0.00393038
0.00397528
0.00401868
0.00406056
0.0041009
0.00413967
0.00417684
0.0042124
0.00424633
0.0042786
0.0043092
0.0043381
0.00436531
0.00439077
0.00441449
0.00443644
0.00445661
0.00447497
0.0044915
0.00450619
0.004519
0.00452991
0.00453889
0.00454592
0.00455096
0.004554
0.004555
0.00455391
0.00455074
0.00454545
0.00453801
0.00452841
0.00451666
0.00450273
0.00448658
0.00446867
0.00444899
0.00442706
0.00440295
0.00437688
0.00434896
0.00432152
0.00429195
0.00426046
0.00422734
0.00419282
0.00415718
0.00412068
0.00408362
0.00404629
0.00400903
0.00397219
0.00393615
0.00390131
0.00386807
0.00383681
0.00380787
0.00378136
0.0037572
0.00373679
0.00371947
0.00370456
0.00369207
0.00368127
0.00367068
0.00366021
0.00364951
0.00363777
0.00362425
0.00360883
0.0035912
0.00357125
0.0035491
0.00352492
0.00349989
0.00347424
0.00344818
0.00342185
0.00339624
0.00337076
0.00334584
0.00332174
0.0032987
0.00327675
0.00325583
0.00323592
0.00321692
0.00319869
0.00318103
0.0031637
0.0031465
0.00312932
0.00311208
0.00309476
0.00307733
0.0030598
0.00304214
0.00302432
0.00300632
0.00298811
0.00296972
0.00295115
0.00293245
0.00291365
0.0028948
0.00287594
0.0028571
0.0028383
0.00281955
0.00280089
0.0027823
0.0027638
0.00274538
0.00272704
0.00270879
0.00269063
0.00267259
0.00265471
0.00263704
0.00261969
0.00260272
0.00258617
0.00256927
7.79118e-06
0.000208326
0.000420187
0.000590952
0.00072693
0.000836208
0.000925838
0.00100152
0.00106758
0.00112733
0.00118331
0.00123727
0.00129045
0.00134371
0.00139754
0.00145228
0.00150812
0.00156513
0.00162333
0.00168267
0.00174309
0.00180454
0.00186692
0.00193021
0.00199436
0.00205929
0.00212493
0.00219124
0.0022582
0.00232566
0.00239352
0.00246173
0.00253022
0.00259894
0.00266775
0.00273645
0.00280505
0.00287347
0.00294166
0.00300955
0.00307699
0.0031439
0.00321021
0.00327589
0.00334086
0.00340504
0.00346833
0.00353066
0.00359201
0.00365229
0.00371145
0.00376943
0.00382616
0.0038816
0.00393569
0.00398837
0.0040396
0.00408933
0.00413752
0.0041841
0.00422905
0.00427231
0.00431386
0.00435366
0.00439165
0.00442782
0.00446212
0.00449453
0.00452502
0.00455355
0.00458009
0.00460463
0.00462712
0.00464755
0.00466588
0.0046821
0.00469618
0.00470806
0.00471776
0.00472523
0.00473042
0.00473333
0.00473391
0.00473213
0.00472797
0.00472138
0.00471235
0.00470084
0.00468683
0.00467032
0.00465122
0.00462992
0.00460658
0.00458051
0.00455177
0.00452042
0.00448662
0.00445045
0.00441454
0.00437655
0.00433634
0.00429404
0.00424995
0.00420433
0.00415749
0.00410977
0.00406151
0.00401309
0.00396495
0.00391757
0.00387145
0.00382715
0.00378507
0.00374556
0.00371073
0.00367949
0.00365234
0.00362978
0.00361062
0.00359513
0.00358278
0.00357343
0.00356626
0.00356023
0.00355433
0.00354767
0.00353963
0.00352974
0.00351775
0.00350365
0.00348765
0.00347024
0.00345179
0.00343266
0.00341314
0.00339381
0.00337477
0.00335639
0.0033389
0.00332264
0.00330753
0.00329353
0.00328055
0.00326846
0.00325706
0.00324603
0.00323503
0.00322372
0.00321184
0.00319922
0.00318587
0.00317177
0.00315703
0.00314172
0.00312592
0.00310969
0.00309305
0.00307607
0.00305876
0.00304118
0.00302336
0.00300534
0.00298717
0.00296886
0.00295045
0.00293196
0.00291343
0.00289486
0.00287625
0.00285765
0.00283906
0.00282048
0.00280197
0.00278355
0.00276527
0.00274723
0.0027295
0.0027122
0.00269535
0.00267832
7.58678e-06
0.000205643
0.000416677
0.000589302
0.000728639
0.000842171
0.000936335
0.00101648
0.00108678
0.0011504
0.00120972
0.00126652
0.00132206
0.00137725
0.0014327
0.00148878
0.00154575
0.00160374
0.00166278
0.0017229
0.00178407
0.00184625
0.0019094
0.00197347
0.0020384
0.00210416
0.00217067
0.00223787
0.00230567
0.00237401
0.00244285
0.00251216
0.00258183
0.00265178
0.00272194
0.00279223
0.00286255
0.00293282
0.00300296
0.00307292
0.00314262
0.00321189
0.00328073
0.00334906
0.00341681
0.00348384
0.00354998
0.00361523
0.00367957
0.00374299
0.00380534
0.00386654
0.00392655
0.0039853
0.00404272
0.00409874
0.00415329
0.00420632
0.00425775
0.00430754
0.00435561
0.00440191
0.00444638
0.00448897
0.00452962
0.00456828
0.0046049
0.00463945
0.00467186
0.00470211
0.00473013
0.00475591
0.00477939
0.00480055
0.00481935
0.00483574