/*--------------------------------*- C++ -*----------------------------------*\
  =========                 |
  \\      /  F ield         | OpenFOAM: The Open Source CFD Toolbox
   \\    /   O peration     | Website:  https://openfoam.org
    \\  /    A nd           | Version:  7
     \\/     M anipulation  |
\*---------------------------------------------------------------------------*/
FoamFile
{
    version     2.0;
    format      ascii;
    class       volScalarField;
    location    "200";
    object      p;
}
// * * * * * * * * * * * * * * * * * * * * * * * * * * * * * * * * * * * * * //

dimensions      [0 2 -2 0 0 0 0];

internalField   nonuniform List<scalar> 
48900
(
-3.78928
-4.10148
-5.11824
-5.72196
-5.98208
-6.12782
-6.24488
-6.35727
-6.46717
-6.57232
-6.67212
-6.76705
-6.85891
-6.94933
-7.04108
-7.13802
-7.24731
-7.38745
-4.32674
-4.78147
-5.17943
-5.65229
-5.91055
-6.07558
-6.20723
-6.32733
-6.44093
-6.54801
-6.64905
-6.74505
-6.83771
-6.92884
-7.02102
-7.11771
-7.22444
-7.34783
-4.36922
-4.78939
-5.26154
-5.65531
-5.90247
-6.0696
-6.20375
-6.32428
-6.43704
-6.54288
-6.64265
-6.73739
-6.82871
-6.91826
-7.00821
-7.10103
-7.19917
-7.29725
-4.58624
-4.89094
-5.29834
-5.65189
-5.89192
-6.06106
-6.19762
-6.31896
-6.43145
-6.53672
-6.63589
-6.72999
-6.82043
-6.90853
-6.99588
-7.08364
-7.1713
-7.24918
-4.75884
-4.97308
-5.34403
-5.659
-5.88847
-6.05698
-6.19449
-6.31598
-6.42783
-6.53218
-6.63034
-6.72334
-6.81238
-6.89847
-6.98258
-7.0647
-7.14256
-7.20682
-4.91464
-5.06346
-5.38853
-5.67032
-5.88831
-6.05476
-6.19236
-6.31369
-6.42484
-6.52824
-6.62531
-6.71708
-6.80454
-6.88837
-6.96898
-7.04562
-7.11535
-7.17091
-5.05476
-5.15634
-5.43484
-5.68597
-5.89116
-6.05396
-6.19062
-6.31135
-6.42163
-6.524
-6.6199
-6.71031
-6.79602
-6.87746
-6.95459
-7.02629
-7.08976
-7.13995
-5.18113
-5.24928
-5.48406
-5.70647
-5.89754
-6.05496
-6.18952
-6.30901
-6.41812
-6.51927
-6.61386
-6.70278
-6.78663
-6.86563
-6.93947
-7.00699
-7.06588
-7.11295
-5.29531
-5.33988
-5.53582
-5.73165
-5.90776
-6.05831
-6.18955
-6.30704
-6.41455
-6.51421
-6.60729
-6.69457
-6.77647
-6.85308
-6.92397
-6.9881
-7.04378
-7.08917
-5.3986
-5.4266
-5.58924
-5.76079
-5.92174
-6.06427
-6.19113
-6.30588
-6.41131
-6.50917
-6.60052
-6.68601
-6.76592
-6.84024
-6.90855
-6.97005
-7.0236
-7.06825
-5.49202
-5.50846
-5.64326
-5.79295
-5.93902
-6.07281
-6.19446
-6.30581
-6.40871
-6.50446
-6.59389
-6.67746
-6.75539
-6.82759
-6.89373
-6.95324
-7.00546
-7.04999
-5.56679
-5.58184
-5.69462
-5.82567
-5.95813
-6.08322
-6.19929
-6.30687
-6.40699
-6.50046
-6.58789
-6.66958
-6.74564
-6.81602
-6.88045
-6.9386
-6.9901
-7.03488
-5.63898
-5.64428
-5.74044
-5.85639
-5.97718
-6.09427
-6.20495
-6.30877
-6.40608
-6.49731
-6.58282
-6.66276
-6.7372
-6.80608
-6.86924
-6.92649
-6.97766
-7.02286
-5.71226
-5.70987
-5.7906
-5.89157
-6.00015
-6.10837
-6.21276
-6.31206
-6.40598
-6.49453
-6.57779
-6.65579
-6.72852
-6.79594
-6.85797
-6.91453
-6.96562
-7.01152
-5.78374
-5.77633
-5.84338
-5.93021
-6.02661
-6.12543
-6.22284
-6.31696
-6.40694
-6.49239
-6.57311
-6.64899
-6.71998
-6.78603
-6.84713
-6.90329
-6.95465
-7.00151
-5.84931
-5.84034
-5.89592
-5.97019
-6.05516
-6.14465
-6.23479
-6.32335
-6.40903
-6.4911
-6.56913
-6.64287
-6.71221
-6.77709
-6.83753
-6.89362
-6.94552
-6.99351
-5.90294
-5.89701
-5.94369
-6.00775
-6.08293
-6.16403
-6.24737
-6.33054
-6.412
-6.49075
-6.5662
-6.63798
-6.70592
-6.76993
-6.83003
-6.88634
-6.93902
-6.98831
-5.9353
-5.93899
-5.97981
-6.03685
-6.10502
-6.17985
-6.25792
-6.33679
-6.41481
-6.49088
-6.56428
-6.63459
-6.70158
-6.76516
-6.82533
-6.88219
-6.93588
-6.9866
-5.93044
-5.95459
-5.99343
-6.048
-6.1136
-6.18599
-6.26187
-6.33888
-6.41537
-6.49023
-6.56276
-6.63256
-6.69939
-6.76317
-6.82391
-6.88168
-6.93662
-6.98887
-5.8871
-5.9282
-5.97074
-6.02967
-6.09949
-6.17549
-6.25422
-6.33336
-6.41142
-6.48746
-6.56095
-6.6316
-6.69929
-6.764
-6.82579
-6.88476
-6.94102
-6.99473
-5.82129
-5.87708
-5.92743
-5.99544
-6.07388
-6.15713
-6.24153
-6.32491
-6.40606
-6.48436
-6.55955
-6.63153
-6.70033
-6.76604
-6.82878
-6.88868
-6.9459
-7.00058
-5.73619
-5.80673
-5.86961
-5.95138
-6.04225
-6.13548
-6.22731
-6.31601
-6.40089
-6.48181
-6.55889
-6.63227
-6.70218
-6.76882
-6.83238
-6.89305
-6.95101
-7.00642
-5.63464
-5.72146
-5.80258
-5.90282
-6.00941
-6.11443
-6.21449
-6.30871
-6.39723
-6.48057
-6.55931
-6.6339
-6.70472
-6.7721
-6.83631
-6.89755
-6.95605
-7.01198
-5.51843
-5.62431
-5.7309
-5.85406
-5.97904
-6.09669
-6.20489
-6.30411
-6.39568
-6.48091
-6.56087
-6.6363
-6.70775
-6.77563
-6.84026
-6.90187
-6.96071
-7.01697
-5.38908
-5.51761
-5.65874
-5.8085
-5.95379
-6.08387
-6.19935
-6.30249
-6.39614
-6.48252
-6.56316
-6.63906
-6.71084
-6.77898
-6.84381
-6.9056
-6.96459
-7.02101
-5.24934
-5.40366
-5.58973
-5.76865
-5.93504
-6.07638
-6.19759
-6.3032
-6.39782
-6.48456
-6.56538
-6.64138
-6.71329
-6.78154
-6.84645
-6.9083
-6.96732
-7.02377
-5.1035
-5.28561
-5.52507
-5.73553
-5.92221
-6.07312
-6.19836
-6.30506
-6.39972
-6.48628
-6.56696
-6.64293
-6.71489
-6.78322
-6.84819
-6.91007
-6.96909
-7.02555
-4.94561
-5.1801
-5.46368
-5.70718
-5.91338
-6.07289
-6.20106
-6.30801
-6.40222
-6.48839
-6.56886
-6.64478
-6.71683
-6.78528
-6.85033
-6.91226
-6.97124
-7.02764
-5.35288
-4.97176
-5.38537
-5.68903
-5.91493
-6.08212
-6.21119
-6.31652
-6.40875
-6.49339
-6.57286
-6.64819
-6.71998
-6.78831
-6.85329
-6.91516
-6.97394
-7.02997
1.32758
-5.7775
-5.55983
-5.76275
-5.95172
-6.10274
-6.22122
-6.31967
-6.40849
-6.49211
-6.57191
-6.64821
-6.72118
-6.79065
-6.85662
-6.91929
-6.97857
-7.03449
-7.98663
-7.98139
-7.98122
-7.98518
-7.99276
-8.00242
-8.0128
-8.02361
-8.03475
-8.04636
-8.05875
-8.07238
-8.08777
-8.10546
-8.12594
-8.14969
-8.17715
-8.20868
-8.24456
-8.285
-8.33008
-8.37987
-8.43435
-8.49345
-8.55709
-8.62524
-8.69774
-8.7744
-8.855
-8.9393
-9.0273
-9.11937
-9.21656
-9.31836
-9.42099
-9.5286
-9.63808
-9.75035
-9.85606
-9.94923
-10.0485
-10.1596
-10.2848
-10.4104
-10.5365
-10.6499
-10.757
-10.8881
-11.0031
-11.1365
-11.248
-11.3656
-11.498
-11.6375
-11.7895
-11.9347
-12.0512
-12.1842
-12.3236
-12.4674
-12.614
-12.7629
-12.9138
-13.0664
-13.2205
-13.3758
-13.532
-13.6887
-13.8454
-14.0018
-14.1572
-14.3108
-14.4619
-14.6106
-14.7543
-14.8926
-15.0252
-15.1501
-15.2655
-15.3714
-15.4643
-15.5445
-15.608
-15.6549
-15.6819
-15.6864
-15.6675
-15.6217
-15.5428
-15.4313
-15.2903
-15.1136
-14.8986
-14.6433
-14.3438
-13.9947
-13.5964
-13.1419
-12.636
-12.0756
-11.4577
-10.7826
-10.0487
-9.25661
-8.40602
-7.49894
-6.53685
-5.52293
-4.46025
-3.35426
-2.20945
-1.03317
0.168017
1.38623
2.61271
3.83782
5.05257
6.24626
7.40881
8.53169
9.60506
10.6251
11.5848
12.4724
13.2789
14.0079
14.6127
15.1606
15.6391
16.0443
16.3866
16.6771
16.9214
17.1212
17.2737
17.3969
17.4906
17.5306
17.5772
17.6816
17.6903
17.6717
17.6143
17.577
17.5602
17.5085
17.464
17.4525
17.3764
17.3059
17.2502
17.1976
17.1433
17.0867
17.0287
16.9709
16.9146
16.8604
16.8089
16.7603
16.7143
16.6713
16.6314
16.5941
16.5601
16.5288
16.5006
16.4752
16.4528
16.4333
16.4168
16.4036
16.3939
16.3884
16.3878
16.394
16.4098
16.4412
16.5037
16.6479
-7.98429
-7.98438
-7.98606
-7.9912
-7.99661
-8.00179
-8.00674
-8.01173
-8.01724
-8.02369
-8.03151
-8.04111
-8.05296
-8.06745
-8.08501
-8.10605
-8.13088
-8.15987
-8.19327
-8.2313
-8.27409
-8.32174
-8.37425
-8.43159
-8.49368
-8.5604
-8.63158
-8.70704
-8.7865
-8.86967
-8.95638
-9.04656
-9.13986
-9.23545
-9.33391
-9.43507
-9.53867
-9.64218
-9.74739
-9.85995
-9.97344
-10.0858
-10.1941
-10.3043
-10.4175
-10.5366
-10.6622
-10.7778
-10.8951
-11.0128
-11.1445
-11.281
-11.413
-11.5427
-11.668
-11.7947
-11.9384
-12.0806
-12.2239
-12.3687
-12.5154
-12.6641
-12.8147
-12.9671
-13.121
-13.2763
-13.4326
-13.5896
-13.7469
-13.904
-14.0603
-14.2151
-14.368
-14.5177
-14.6635
-14.8044
-14.9395
-15.0669
-15.1862
-15.2951
-15.3926
-15.4766
-15.5455
-15.5971
-15.6295
-15.64
-15.6272
-15.5884
-15.5172
-15.4169
-15.2874
-15.1212
-14.916
-14.669
-14.377
-14.0378
-13.6509
-13.2107
-12.7186
-12.173
-11.5712
-10.9125
-10.1958
-9.42123
-8.58914
-7.70069
-6.75768
-5.76284
-4.71969
-3.63234
-2.50614
-1.34749
-0.162773
1.03996
2.25257
3.46594
4.6712
5.85922
7.01809
8.13979
9.217
10.2433
11.2066
12.1
12.9113
13.6406
14.3263
14.8944
15.3923
15.821
16.181
16.4799
16.7276
16.9299
17.1045
17.245
17.3476
17.4327
17.5109
17.5391
17.5702
17.572
17.5636
17.5358
17.4977
17.4691
17.4333
17.3744
17.3353
17.2808
17.2227
17.1669
17.1116
17.0562
17.0009
16.9463
16.8932
16.842
16.7931
16.7468
16.7029
16.6617
16.6233
16.5875
16.5544
16.5241
16.4966
16.4718
16.4498
16.4306
16.4144
16.4014
16.3918
16.3864
16.386
16.3924
16.4085
16.4402
16.5003
16.6197
-7.96244
-7.97613
-7.97941
-7.98434
-7.98897
-7.99284
-7.99606
-7.99905
-8.00236
-8.0066
-8.01235
-8.02011
-8.03035
-8.0435
-8.05995
-8.08008
-8.10421
-8.13259
-8.16546
-8.20296
-8.2452
-8.29221
-8.34399
-8.40047
-8.46154
-8.52706
-8.59689
-8.67086
-8.7488
-8.83056
-8.91602
-9.00499
-9.09706
-9.19179
-9.28874
-9.38725
-9.48686
-9.58699
-9.68821
-9.79223
-9.89926
-10.0085
-10.1194
-10.2327
-10.3484
-10.4651
-10.582
-10.6977
-10.8143
-10.9342
-11.0598
-11.189
-11.3197
-11.452
-11.5845
-11.7174
-11.8531
-11.9917
-12.1332
-12.2771
-12.4231
-12.5713
-12.7216
-12.8738
-13.0277
-13.1831
-13.3399
-13.4975
-13.6557
-13.8139
-13.9717
-14.1284
-14.2832
-14.4353
-14.5839
-14.7281
-14.8666
-14.9981
-15.1216
-15.2354
-15.3381
-15.4279
-15.503
-15.5615
-15.6011
-15.6197
-15.6153
-15.585
-15.5239
-15.4344
-15.3152
-15.1598
-14.9661
-14.7311
-14.4522
-14.1269
-13.7539
-13.3291
-12.8523
-12.323
-11.7376
-11.0957
-10.3962
-9.63884
-8.82421
-7.95319
-7.02743
-6.0496
-5.02281
-3.95142
-2.84029
-1.69527
-0.523083
0.668926
1.87243
3.07865
4.27833
5.46219
6.62012
7.7437
8.82389
9.85394
10.8246
11.7266
12.5506
13.3049
13.9947
14.5889
15.1077
15.5582
15.9428
16.2648
16.5329
16.7564
16.9424
17.0908
17.2085
17.3161
17.403
17.4321
17.4559
17.4735
17.4834
17.4746
17.4473
17.4179
17.3826
17.3319
17.2933
17.2507
17.1986
17.1447
17.0908
17.0372
16.9841
16.9319
16.881
16.8318
16.7846
16.7397
16.697
16.6569
16.6192
16.5841
16.5516
16.5217
16.4945
16.4698
16.4479
16.4288
16.4125
16.3993
16.3896
16.3838
16.3831
16.3889
16.4039
16.4327
16.4834
16.5661
-7.92262
-7.95099
-7.96
-7.96748
-7.97335
-7.97781
-7.98131
-7.98444
-7.98787
-7.99227
-7.99826
-8.0064
-8.01718
-8.03102
-8.04828
-8.06931
-8.09432
-8.12347
-8.15704
-8.1952
-8.23792
-8.28524
-8.33712
-8.39349
-8.45424
-8.51924
-8.58836
-8.66143
-8.73829
-8.81876
-8.90266
-8.98977
-9.07979
-9.17232
-9.26695
-9.36319
-9.46071
-9.5593
-9.65928
-9.76117
-9.86539
-9.97203
-10.0811
-10.1924
-10.3057
-10.4202
-10.5352
-10.6506
-10.7674
-10.887
-11.0102
-11.1365
-11.2649
-11.395
-11.5266
-11.66
-11.7957
-11.9336
-12.0743
-12.2174
-12.363
-12.5109
-12.6613
-12.8137
-12.9681
-13.1243
-13.282
-13.4408
-13.6005
-13.7604
-13.9203
-14.0793
-14.2366
-14.3918
-14.5437
-14.6915
-14.834
-14.97
-15.0983
-15.2173
-15.3256
-15.4213
-15.5028
-15.568
-15.615
-15.6413
-15.6452
-15.6234
-15.5717
-15.4926
-15.3837
-15.2387
-15.0558
-14.8321
-14.5651
-14.2521
-13.8913
-13.4796
-13.0158
-12.4995
-11.9275
-11.2987
-10.6122
-9.86779
-9.06565
-8.20679
-7.29275
-6.32583
-5.30917
-4.24679
-3.14385
-2.00564
-0.83876
0.349459
1.55072
2.75641
3.95719
5.14359
6.30521
7.43377
8.51971
9.55521
10.5305
11.4373
12.2675
13.0249
13.7145
14.3222
14.8527
15.3164
15.7195
16.0641
16.356
16.6016
16.8047
16.9687
17.1032
17.2206
17.3106
17.3538
17.3796
17.4025
17.4201
17.4214
17.4037
17.3774
17.345
17.3031
17.2638
17.2235
17.1761
17.1252
17.0734
17.0216
16.9702
16.9197
16.8703
16.8225
16.7764
16.7324
16.6905
16.651
16.6139
16.5792
16.547
16.5173
16.4902
16.4657
16.4437
16.4245
16.408
16.3946
16.3845
16.3783
16.3767
16.3812
16.3938
16.4174
16.4555
16.507
-7.87379
-7.91279
-7.92946
-7.94147
-7.9504
-7.95709
-7.96248
-7.96737
-7.97257
-7.9788
-7.9867
-7.99686
-8.00974
-8.02572
-8.04514
-8.06829
-8.09537
-8.12649
-8.16183
-8.20151
-8.24552
-8.29386
-8.34647
-8.4033
-8.46422
-8.52912
-8.59786
-8.67028
-8.74623
-8.8255
-8.90787
-8.99314
-9.08099
-9.17121
-9.26347
-9.35749
-9.4532
-9.55043
-9.64936
-9.75016
-9.8529
-9.95766
-10.0644
-10.173
-10.2833
-10.3952
-10.5085
-10.6232
-10.7396
-10.8584
-10.9796
-11.1035
-11.2299
-11.3585
-11.4893
-11.6223
-11.7575
-11.8954
-12.0357
-12.1787
-12.3244
-12.4725
-12.6232
-12.7763
-12.9317
-13.089
-13.2481
-13.4086
-13.5703
-13.7327
-13.895
-14.0568
-14.2175
-14.3761
-14.532
-14.684
-14.8311
-14.9722
-15.1057
-15.2304
-15.3447
-15.447
-15.5354
-15.6079
-15.6625
-15.6967
-15.7087
-15.6954
-15.6534
-15.5853
-15.4871
-15.3526
-15.1802
-14.9673
-14.7115
-14.4098
-14.0601
-13.6599
-13.2077
-12.7027
-12.1416
-11.5236
-10.8477
-10.1132
-9.32049
-8.47034
-7.5642
-6.6043
-5.59362
-4.53599
-3.4364
-2.30029
-1.13395
0.0551449
1.25886
2.46834
3.67412
4.86661
6.03524
7.17132
8.2649
9.30763
10.2899
11.2039
12.0434
12.8093
13.5047
14.1239
14.6677
15.144
15.5599
15.9192
16.2263
16.4861
16.7024
16.8795
17.0257
17.1477
17.2402
17.2957
17.33
17.3564
17.3758
17.3812
17.3698
17.3476
17.3183
17.2816
17.2431
17.203
17.158
17.1097
17.0597
17.0094
16.9592
16.9097
16.8612
16.8141
16.7688
16.7253
16.6839
16.6447
16.6078
16.5733
16.5412
16.5116
16.4845
16.4599
16.4379
16.4184
16.4018
16.388
16.3774
16.3704
16.3677
16.3703
16.3795
16.3967
16.4218
16.449
-7.82606
-7.87002
-7.89413
-7.91118
-7.92395
-7.93381
-7.94202
-7.94964
-7.95759
-7.96663
-7.97742
-7.99051
-8.00634
-8.02526
-8.04758
-8.07349
-8.10319
-8.13678
-8.17438
-8.21602
-8.26172
-8.31144
-8.36511
-8.42266
-8.484
-8.54901
-8.61753
-8.68942
-8.76453
-8.84268
-8.92371
-9.00731
-9.09337
-9.18159
-9.2718
-9.36386
-9.45765
-9.55324
-9.65055
-9.74966
-9.85061
-9.95337
-10.0579
-10.1641
-10.272
-10.3815
-10.4929
-10.6062
-10.7215
-10.8391
-10.9591
-11.0815
-11.2065
-11.334
-11.4639
-11.5963
-11.7313
-11.8691
-12.0096
-12.1529
-12.2991
-12.4479
-12.5997
-12.7539
-12.9106
-13.0696
-13.2307
-13.3934
-13.5577
-13.7228
-13.8884
-14.0538
-14.2183
-14.3812
-14.5415
-14.6985
-14.851
-14.9976
-15.1372
-15.2683
-15.3892
-15.4987
-15.5946
-15.6749
-15.7376
-15.7805
-15.8017
-15.7977
-15.7652
-15.7077
-15.6201
-15.4958
-15.3339
-15.132
-14.887
-14.596
-14.2571
-13.8677
-13.4257
-12.9311
-12.3798
-11.7713
-11.1041
-10.3777
-9.59237
-8.74874
-7.84798
-6.89236
-5.88461
-4.82862
-3.72915
-2.59155
-1.42215
-0.228598
0.981136
2.19788
3.41218
4.6139
5.79218
6.93828
8.04155
9.09343
10.0843
11.0075
11.8583
12.6362
13.3414
13.9718
14.529
15.0182
15.4455
15.8157
16.1332
16.4026
16.6281
16.8144
16.9679
17.0929
17.1881
17.2524
17.2948
17.325
17.345
17.352
17.3446
17.3258
17.2989
17.2653
17.228
17.188
17.1443
17.0974
17.0488
16.9993
16.9499
16.901
16.853
16.8063
16.7612
16.718
16.6767
16.6377
16.6009
16.5664
16.5343
16.5046
16.4774
16.4527
16.4305
16.4109
16.3939
16.3797
16.3684
16.3605
16.3564
16.3567
16.362
16.3723
16.3854
16.3939
-7.7867
-7.83059
-7.86054
-7.88198
-7.89846
-7.9116
-7.9229
-7.93359
-7.94462
-7.9568
-7.97078
-7.98708
-8.00611
-8.02819
-8.05356
-8.08241
-8.11487
-8.15103
-8.19095
-8.23464
-8.28212
-8.33327
-8.38791
-8.44615
-8.50794
-8.57306
-8.64138
-8.71276
-8.78708
-8.86414
-8.94379
-9.02586
-9.11017
-9.19655
-9.28484
-9.37505
-9.46692
-9.56061
-9.65605
-9.75321
-9.85215
-9.95275
-10.0551
-10.1593
-10.265
-10.3727
-10.4823
-10.5941
-10.7082
-10.8246
-10.9434
-11.0649
-11.1888
-11.3155
-11.4448
-11.5769
-11.7119
-11.8498
-11.9907
-12.1347
-12.2817
-12.4317
-12.5848
-12.7406
-12.8994
-13.0606
-13.2241
-13.3898
-13.5572
-13.7256
-13.895
-14.0646
-14.2336
-14.4015
-14.567
-14.7294
-14.8877
-15.0407
-15.187
-15.325
-15.4534
-15.5706
-15.6743
-15.7633
-15.8347
-15.8867
-15.9175
-15.9237
-15.9019
-15.8543
-15.7769
-15.6634
-15.5123
-15.321
-15.087
-14.8067
-14.4782
-14.0991
-13.6674
-13.1823
-12.6401
-12.0401
-11.3808
-10.6614
-9.88218
-9.04355
-8.1465
-7.19316
-6.18644
-5.12998
-4.02819
-2.88664
-1.71162
-0.510747
0.707617
1.93445
3.15983
4.37349
5.56415
6.72236
7.83751
8.90054
9.90247
10.8375
11.7014
12.4918
13.2083
13.8501
14.4194
14.9202
15.3577
15.737
16.0627
16.3396
16.5721
16.7651
16.9237
17.0516
17.1498
17.2202
17.269
17.3025
17.3235
17.3315
17.3262
17.3098
17.2847
17.253
17.2166
17.1768
17.1336
17.0875
17.0396
16.9907
16.9417
16.893
16.8452
16.7986
16.7535
16.7103
16.669
16.6299
16.593
16.5584
16.5262
16.4965
16.4691
16.4443
16.4218
16.402
16.3846
16.3699
16.3579
16.3489
16.3431
16.3409
16.342
16.3456
16.348
16.3423
-7.75984
-7.7999
-7.83328
-7.85785
-7.87723
-7.89318
-7.90729
-7.92082
-7.93476
-7.94991
-7.96689
-7.98619
-8.00819
-8.03318
-8.06136
-8.09287
-8.12783
-8.16628
-8.20825
-8.25372
-8.30268
-8.35508
-8.41073
-8.46962
-8.53172
-8.59682
-8.66485
-8.73563
-8.80906
-8.88499
-8.96334
-9.04384
-9.12646
-9.21107
-9.29754
-9.38585
-9.47586
-9.56757
-9.66107
-9.75623
-9.85319
-9.95186
-10.0523
-10.1544
-10.2586
-10.3647
-10.4729
-10.5833
-10.6962
-10.8113
-10.9292
-11.0498
-11.1732
-11.2992
-11.4283
-11.5604
-11.6957
-11.834
-11.9757
-12.1205
-12.2688
-12.4203
-12.5751
-12.7332
-12.8942
-13.058
-13.2246
-13.3935
-13.5644
-13.737
-13.9106
-14.0847
-14.2587
-14.4319
-14.6031
-14.7716
-14.9365
-15.0962
-15.2495
-15.395
-15.5315
-15.6567
-15.7693
-15.8668
-15.9475
-16.0091
-16.0495
-16.0656
-16.0544
-16.0181
-15.9517
-15.8494
-15.7095
-15.5293
-15.306
-15.0366
-14.7187
-14.3496
-13.9278
-13.452
-12.9187
-12.3268
-11.6747
-10.9617
-10.1878
-9.3532
-8.45891
-7.50693
-6.49974
-5.44115
-4.33559
-3.18828
-2.00581
-0.795672
0.433669
1.67274
2.91146
4.13907
5.34397
6.51637
7.64527
8.7219
9.73757
10.6865
11.5641
12.3674
13.0957
13.7488
14.329
14.84
15.2865
15.6736
16.0063
16.2894
16.5276
16.7257
16.8885
17.0194
17.1209
17.1959
17.2493
17.2858
17.308
17.3168
17.3128
17.298
17.2742
17.2435
17.2077
17.1681
17.125
17.0791
17.0315
16.9827
16.9338
16.8851
16.8372
16.7905
16.7453
16.7019
16.6605
16.6211
16.5841
16.5493
16.517
16.487
16.4596
16.4345
16.4119
16.3917
16.374
16.3587
16.346
16.3358
16.3283
16.3233
16.3202
16.3174
16.3107
16.2941
-7.74657
-7.78032
-7.81465
-7.8407
-7.86184
-7.87975
-7.89599
-7.91179
-7.92811
-7.9457
-7.96515
-7.98691
-8.01134
-8.03867
-8.06909
-8.10272
-8.13963
-8.17983
-8.22334
-8.27015
-8.32016
-8.37334
-8.42958
-8.48883
-8.55091
-8.61575
-8.68329
-8.75336
-8.82586
-8.90062
-8.97752
-9.05654
-9.13752
-9.22031
-9.30501
-9.39142
-9.47952
-9.56941
-9.66096
-9.7543
-9.84934
-9.94613
-10.0449
-10.1455
-10.2481
-10.3529
-10.4598
-10.5691
-10.6808
-10.7952
-10.9124
-11.0324
-11.1554
-11.2814
-11.4106
-11.5431
-11.6788
-11.8179
-11.9606
-12.1069
-12.2567
-12.4101
-12.5672
-12.7274
-12.8912
-13.0583
-13.2282
-13.401
-13.576
-13.7528
-13.9313
-14.1105
-14.29
-14.4688
-14.6463
-14.8211
-14.9929
-15.1598
-15.321
-15.4745
-15.619
-15.7529
-15.8745
-15.9812
-16.0714
-16.1429
-16.1935
-16.2196
-16.2185
-16.1943
-16.1395
-16.0481
-15.9195
-15.7505
-15.5382
-15.2797
-14.9725
-14.6135
-14.2014
-13.7347
-13.21
-12.626
-11.9812
-11.2742
-10.5052
-9.67414
-8.78202
-7.83045
-6.82219
-5.76065
-4.65007
-3.49602
-2.30461
-1.08359
0.158145
1.41111
2.6647
3.90791
5.12872
6.31699
7.46184
8.55431
9.58523
10.5489
11.4406
12.2568
12.9968
13.6606
14.2507
14.7708
15.2254
15.6194
15.958
16.2464
16.4895
16.692
16.8585
16.9925
17.0972
17.1762
17.2333
17.2723
17.296
17.3056
17.3027
17.2888
17.2659
17.2358
17.2002
17.1605
17.1173
17.0714
17.0236
16.9748
16.9257
16.8769
16.8287
16.7818
16.7364
16.6927
16.651
16.6114
16.5741
16.5391
16.5066
16.4765
16.4488
16.4236
16.4008
16.3804
16.3622
16.3464
16.3329
16.3215
16.3121
16.3043
16.2972
16.2885
16.274
16.2489
-7.74538
-7.77176
-7.80471
-7.83057
-7.85215
-7.87099
-7.88849
-7.90578
-7.92373
-7.94305
-7.96426
-7.98778
-8.01391
-8.04289
-8.07483
-8.10988
-8.14805
-8.18937
-8.23379
-8.28133
-8.33187
-8.38536
-8.44172
-8.50089
-8.56268
-8.62705
-8.69384
-8.76295
-8.8343
-8.90781
-8.98335
-9.06082
-9.14014
-9.22128
-9.30423
-9.38892
-9.47526
-9.56338
-9.65319
-9.74475
-9.83812
-9.93348
-10.0307
-10.1299
-10.2313
-10.3348
-10.4407
-10.5491
-10.6602
-10.7741
-10.8908
-11.0105
-11.1335
-11.2597
-11.3892
-11.5222
-11.659
-11.7993
-11.9433
-12.0911
-12.2429
-12.3984
-12.558
-12.7214
-12.8883
-13.0586
-13.2324
-13.409
-13.5885
-13.7701
-13.9538
-14.1384
-14.3235
-14.5084
-14.6923
-14.8743
-15.053
-15.2275
-15.3964
-15.5581
-15.711
-15.8538
-15.9844
-16.1008
-16.2007
-16.2822
-16.3431
-16.3797
-16.39
-16.3771
-16.3334
-16.2535
-16.136
-15.978
-15.7769
-15.5294
-15.2328
-14.8839
-14.4813
-14.0237
-13.5077
-12.9317
-12.2937
-11.5925
-10.8281
-10.0003
-9.11006
-8.15898
-7.14905
-6.08384
-4.96775
-3.80604
-2.60499
-1.37248
-0.117387
1.15045
2.41976
3.67955
4.91733
6.12311
7.28523
8.39454
9.44159
10.4205
11.326
12.1548
12.9061
13.5801
14.1794
14.7076
15.1693
15.5694
15.9134
16.2066
16.454
16.6606
16.8305
16.9678
17.0759
17.1583
17.2186
17.2602
17.2853
17.2961
17.294
17.2809
17.2585
17.2287
17.1932
17.1532
17.1096
17.0635
17.0155
16.9665
16.917
16.8679
16.8195
16.7722
16.7264
16.6824
16.6404
16.6005
16.563
16.5278
16.4951
16.4648
16.437
16.4117
16.3887
16.3679
16.3495
16.3331
16.3187
16.3061
16.2949
16.2844
16.2734
16.2594
16.2382
16.2064
-7.7531
-7.77219
-7.80182
-7.82597
-7.84677
-7.8655
-7.88335
-7.90128
-7.92008
-7.94032
-7.9625
-7.98696
-8.014
-8.0438
-8.07651
-8.1122
-8.15091
-8.19263
-8.23735
-8.28501
-8.33554
-8.3889
-8.44493
-8.50357
-8.5647
-8.62822
-8.69404
-8.7621
-8.83223
-8.9044
-8.97849
-9.05447
-9.13222
-9.21178
-9.29311
-9.37611
-9.46096
-9.54743
-9.63575
-9.72584
-9.81784
-9.91166
-10.0077
-10.1059
-10.2062
-10.3088
-10.414
-10.5218
-10.6325
-10.746
-10.8625
-10.9824
-11.1056
-11.2323
-11.3624
-11.4963
-11.6344
-11.7759
-11.9218
-12.0715
-12.2254
-12.3835
-12.5459
-12.7122
-12.8825
-13.0567
-13.2343
-13.4154
-13.5996
-13.7862
-13.9752
-14.1654
-14.3565
-14.5478
-14.7385
-14.9273
-15.1133
-15.2955
-15.4724
-15.6422
-15.804
-15.9558
-16.0954
-16.2215
-16.3309
-16.4226
-16.4936
-16.5409
-16.5621
-16.5601
-16.5275
-16.4586
-16.3523
-16.2058
-16.0154
-15.7786
-15.4927
-15.154
-14.7607
-14.3119
-13.8042
-13.2357
-12.6044
-11.909
-11.1493
-10.3247
-9.43624
-8.48523
-7.47371
-6.40484
-5.28305
-4.11335
-2.9023
-1.65801
-0.389338
0.89327
2.1789
3.45575
4.7114
5.93526
7.1152
8.24187
9.30518
10.2989
11.2178
12.0586
12.8203
13.5035
14.111
14.6461
15.114
15.5197
15.8686
16.1662
16.4178
16.6281
16.8016
16.9424
17.0539
17.1398
17.2032
17.2472
17.2743
17.2863
17.2853
17.2728
17.2509
17.2213
17.1857
17.1454
17.1015
17.0549
17.0066
16.9572
16.9074
16.8578
16.8091
16.7614
16.7153
16.671
16.6286
16.5885
16.5507
16.5154
16.4825
16.4521
16.4242
16.3987
16.3756
16.3547
16.3358
16.3189
16.3037
16.2899
16.2768
16.2638
16.2492
16.2305
16.2037
16.1664
-7.76567
-7.77837
-7.80327
-7.82449
-7.84345
-7.86111
-7.87842
-7.89616
-7.91496
-7.93535
-7.95771
-7.98238
-8.00957
-8.0395
-8.07225
-8.10788
-8.14645
-8.18794
-8.23229
-8.27954
-8.32952
-8.38221
-8.43746
-8.49524
-8.55543
-8.61789
-8.68264
-8.74942
-8.81828
-8.88906
-8.96177
-9.03627
-9.11259
-9.19065
-9.2705
-9.3521
-9.43543
-9.52051
-9.60749
-9.69631
-9.78716
-9.88007
-9.97504
-10.0723
-10.1719
-10.274
-10.3786
-10.4862
-10.5965
-10.7101
-10.8267
-10.947
-11.0706
-11.1979
-11.3291
-11.4642
-11.6032
-11.7468
-11.8945
-12.0466
-12.2029
-12.3639
-12.5291
-12.6987
-12.8724
-13.0505
-13.2324
-13.4182
-13.607
-13.799
-13.9932
-14.1892
-14.3864
-14.5841
-14.7816
-14.9771
-15.1706
-15.3604
-15.5449
-15.7235
-15.8937
-16.0542
-16.2032
-16.3382
-16.4575
-16.559
-16.64
-16.6975
-16.7293
-16.738
-16.7158
-16.6574
-16.5621
-16.4263
-16.2469
-16.0209
-15.7449
-15.4158
-15.0313
-14.5912
-14.0914
-13.5302
-12.9053
-12.2153
-11.4599
-10.6386
-9.75157
-8.80059
-7.78727
-6.71509
-5.58808
-4.41118
-3.19104
-1.93582
-0.654396
0.642742
1.94444
3.23876
4.51224
5.75413
6.95174
8.09512
9.17386
10.1817
11.1132
11.9649
12.7359
13.4272
14.0418
14.583
15.0563
15.4669
15.8202
16.122
16.3775
16.5917
16.7691
16.9135
17.0289
17.1183
17.185
17.2318
17.2611
17.2748
17.2749
17.2633
17.2419
17.2125
17.1769
17.1363
17.092
17.0451
16.9964
16.9466
16.8965
16.8466
16.7974
16.7494
16.7029
16.6583
16.6156
16.5752
16.5373
16.5018
16.4689
16.4384
16.4105
16.3849
16.3617
16.3406
16.3214
16.304
16.2881
16.273
16.2583
16.2428
16.2249
16.202
16.1704
16.1286
-7.77908
-7.78671
-7.80598
-7.82338
-7.83967
-7.8555
-7.87153
-7.88836
-7.90649
-7.92631
-7.94818
-7.97235
-7.99905
-8.0284
-8.06053
-8.09547
-8.1333
-8.17395
-8.21745
-8.26377
-8.31275
-8.36439
-8.41855
-8.47515
-8.53415
-8.59541
-8.65882
-8.72434
-8.79182
-8.8613
-8.93262
-9.00581
-9.08081
-9.15761
-9.2361
-9.3164
-9.39864
-9.48259
-9.56845
-9.65631
-9.74632
-9.8382
-9.93241
-10.029
-10.1282
-10.2299
-10.3344
-10.4417
-10.5522
-10.6659
-10.783
-10.9036
-11.0279
-11.1561
-11.2885
-11.425
-11.5656
-11.7109
-11.8605
-12.0151
-12.174
-12.3378
-12.5061
-12.6791
-12.8567
-13.0387
-13.2249
-13.4151
-13.6089
-13.8058
-14.0057
-14.2077
-14.411
-14.6152
-14.8188
-15.0217
-15.2226
-15.4197
-15.6121
-15.7985
-15.977
-16.1459
-16.3035
-16.4474
-16.5759
-16.6868
-16.7774
-16.8448
-16.8863
-16.9053
-16.8932
-16.8449
-16.7594
-16.6337
-16.4647
-16.2485
-15.982
-15.6618
-15.2852
-14.8531
-14.3605
-13.806
-13.1873
-12.5025
-11.7513
-10.9332
-10.0486
-9.09841
-8.08429
-7.00969
-5.87835
-4.69516
-3.46688
-2.20139
-0.908124
0.402851
1.71993
3.03062
4.32128
5.58021
6.79442
7.95332
9.04642
10.0669
11.0093
11.8704
12.6496
13.3479
13.9682
14.5146
14.9925
15.4073
15.7648
16.0706
16.3303
16.5487
16.7301
16.8788
16.9982
17.0916
17.1621
17.2122
17.2441
17.2599
17.2616
17.2512
17.2305
17.2015
17.166
17.1253
17.0808
17.0335
16.9844
16.9343
16.8839
16.8336
16.7841
16.7358
16.6891
16.6442
16.6014
16.5608
16.5228
16.4872
16.4542
16.4238
16.3959
16.3704
16.3471
16.3259
16.3066
16.2887
16.272
16.2559
16.2395
16.2217
16.2008
16.1743
16.1387
16.093
-7.78975
-7.79385
-7.80711
-7.82018
-7.83325
-7.84667
-7.86083
-7.87616
-7.893
-7.91169
-7.93245
-7.95555
-7.98114
-8.00935
-8.04029
-8.07406
-8.11061
-8.15001
-8.19221
-8.23719
-8.28486
-8.33513
-8.38797
-8.44323
-8.50088
-8.5608
-8.62289
-8.68704
-8.75323
-8.82145
-8.89151
-8.96343
-9.03716
-9.11284
-9.19029
-9.26952
-9.35069
-9.43371
-9.51875
-9.60576
-9.6949
-9.7864
-9.88017
-9.97637
-10.0751
-10.1765
-10.281
-10.3884
-10.499
-10.613
-10.7307
-10.8518
-10.9771
-11.1063
-11.2399
-11.3777
-11.5201
-11.6671
-11.8191
-11.9758
-12.1374
-12.3043
-12.4758
-12.6524
-12.8336
-13.0197
-13.2103
-13.405
-13.6038
-13.8059
-14.0111
-14.2186
-14.428
-14.6385
-14.849
-15.0584
-15.2661
-15.4707
-15.6703
-15.8644
-16.0507
-16.2276
-16.3935
-16.5459
-16.6829
-16.8025
-16.9022
-16.9786
-17.0296
-17.0576
-17.0547
-17.0156
-16.9392
-16.8227
-16.6632
-16.4565
-16.199
-15.8873
-15.518
-15.0928
-14.6071
-14.0593
-13.4464
-12.7668
-12.02
-11.2055
-10.3228
-9.37345
-8.35866
-7.28197
-6.14669
-4.95837
-3.72325
-2.44878
-1.14429
0.179317
1.51018
2.83579
4.14148
5.41548
6.64398
7.8163
8.92144
9.95227
10.9039
11.7725
12.5581
13.2617
13.8865
14.4371
14.919
15.3378
15.6992
16.0092
16.2732
16.4959
16.6819
16.8353
16.9594
17.0575
17.1323
17.1864
17.2216
17.2402
17.2441
17.2352
17.2158
17.1875
17.1522
17.1117
17.067
17.0195
16.9703
16.92
16.8693
16.8189
16.7692
16.7207
16.6738
16.6288
16.5859
16.5453
16.5071
16.4717
16.4388
16.4084
16.3806
16.3552
16.332
16.3108
16.2913
16.2731
16.2557
16.2385
16.2206
16.2008
16.1773
16.1475
16.1085
16.0596
-7.7952
-7.79713
-7.80448
-7.81303
-7.82256
-7.83316
-7.84502
-7.85837
-7.87344
-7.89046
-7.90964
-7.93115
-7.95515
-7.98178
-8.01111
-8.04323
-8.07816
-8.11592
-8.15649
-8.19984
-8.24591
-8.29464
-8.34593
-8.39973
-8.45592
-8.51442
-8.57516
-8.63803
-8.70299
-8.76996
-8.83889
-8.90973
-8.98247
-9.0571
-9.1336
-9.212
-9.29232
-9.37461
-9.45895
-9.54538
-9.63402
-9.72495
-9.81828
-9.91416
-10.0127
-10.1141
-10.2185
-10.326
-10.4369
-10.5514
-10.6695
-10.7914
-10.9175
-11.0478
-11.1825
-11.3218
-11.466
-11.615
-11.769
-11.928
-12.0924
-12.262
-12.4366
-12.6166
-12.8017
-12.9918
-13.1866
-13.386
-13.5895
-13.7969
-14.0074
-14.2206
-14.4359
-14.6523
-14.8692
-15.0853
-15.2998
-15.511
-15.7181
-15.9195
-16.1132
-16.2979
-16.4714
-16.6319
-16.7769
-16.9046
-17.0127
-17.0976
-17.1574
-17.1936
-17.1988
-17.1678
-17.0993
-16.9911
-16.8405
-16.6425
-16.3932
-16.0888
-15.7259
-15.3071
-14.8277
-14.2856
-13.6779
-13.0026
-12.2593
-11.4472
-10.5665
-9.61783
-8.60253
-7.52445
-6.38626
-5.19335
-3.95214
-2.66976
-1.3561
-0.0220698
1.32017
2.65763
3.97543
5.26148
6.50125
7.68379
8.7978
9.83643
10.7942
11.6681
12.458
13.1653
13.7936
14.3476
14.8329
15.2551
15.6205
15.9348
16.2034
16.431
16.6222
16.7809
16.9104
17.0139
17.0938
17.1525
17.192
17.214
17.2209
17.2143
17.1965
17.1694
17.1349
17.0947
17.0503
17.0029
16.9537
16.9033
16.8526
16.8022
16.7525
16.704
16.657
16.612
16.5691
16.5285
16.4906
16.4553
16.4225
16.3924
16.3649
16.3397
16.3167
16.2955
16.2759
16.2574
16.2395
16.2213
16.2021
16.1804
16.1545
16.122
16.08
16.0284
-7.79437
-7.79497
-7.79673
-7.80081
-7.80665
-7.81415
-7.82333
-7.83427
-7.8471
-7.86198
-7.87906
-7.89852
-7.92048
-7.94507
-7.9724
-8.00253
-8.03551
-8.07136
-8.11008
-8.15163
-8.19597
-8.24304
-8.29275
-8.34504
-8.3998
-8.45695
-8.51641
-8.57808
-8.6419
-8.7078
-8.77573
-8.84564
-8.91748
-8.99129
-9.06703
-9.14471
-9.22437
-9.30603
-9.38982
-9.47574
-9.56392
-9.65446
-9.74747
-9.8431
-9.9415
-10.0428
-10.1472
-10.2549
-10.366
-10.4808
-10.5994
-10.722
-10.8489
-10.9803
-11.1162
-11.2569
-11.4026
-11.5534
-11.7096
-11.871
-12.0379
-12.2103
-12.3882
-12.5716
-12.7604
-12.9544
-13.1535
-13.3573
-13.5656
-13.7779
-13.9937
-14.2124
-14.4332
-14.6556
-14.8784
-15.1008
-15.3216
-15.5395
-15.7532
-15.9612
-16.1619
-16.3535
-16.5341
-16.7016
-16.8539
-16.9891
-17.1047
-17.1978
-17.2662
-17.3088
-17.3203
-17.2969
-17.2355
-17.1334
-16.9904
-16.8001
-16.5576
-16.2594
-15.9017
-15.4882
-15.0135
-14.4754
-13.8714
-13.1997
-12.459
-11.6489
-10.7695
-9.82138
-8.80621
-7.72662
-6.58609
-5.38959
-4.14335
-2.85535
-1.53511
-0.193706
1.15641
2.50183
3.82733
5.12035
6.36646
7.55435
8.67276
9.71484
10.6753
11.5512
12.343
13.0521
13.6828
14.2392
14.7275
15.1535
15.5232
15.8422
16.116
16.3493
16.5464
16.7113
16.8471
16.9568
17.0428
17.1072
17.1519
17.1785
17.1892
17.1859
17.1707
17.1455
17.1124
17.0733
17.0296
16.9828
16.934
16.884
16.8335
16.7833
16.7338
16.6854
16.6387
16.5938
16.5511
16.5108
16.4731
16.4381
16.4057
16.376
16.3488
16.3239
16.3012
16.2802
16.2606