/*--------------------------------*- C++ -*----------------------------------*\
  =========                 |
  \\      /  F ield         | OpenFOAM: The Open Source CFD Toolbox
   \\    /   O peration     | Website:  https://openfoam.org
    \\  /    A nd           | Version:  7
     \\/     M anipulation  |
\*---------------------------------------------------------------------------*/
FoamFile
{
    version     2.0;
    format      ascii;
    class       surfaceScalarField;
    location    "200";
    object      phi;
}
// * * * * * * * * * * * * * * * * * * * * * * * * * * * * * * * * * * * * * //

dimensions      [0 3 -1 0 0 0 0];

internalField   nonuniform List<scalar> 
97240
(
-6.49298e-08
2.62455e-08
1.63289e-06
-1.43914e-06
1.36162e-06
7.75153e-08
-1.28655e-06
1.2192e-06
6.73493e-08
-1.16094e-06
1.1154e-06
4.55401e-08
-1.07918e-06
1.05132e-06
2.78516e-08
-1.0284e-06
1.00953e-06
1.88632e-08
-9.92721e-07
9.77859e-07
1.48557e-08
-9.63913e-07
9.51197e-07
1.27126e-08
-9.39085e-07
9.27989e-07
1.10908e-08
-9.17431e-07
9.07791e-07
9.63722e-09
-8.98654e-07
8.90336e-07
8.3139e-09
-8.82465e-07
8.75308e-07
7.15586e-09
-8.68545e-07
8.62406e-07
6.13594e-09
-8.56619e-07
8.5138e-07
5.23836e-09
-8.46459e-07
8.42032e-07
4.42432e-09
-8.37923e-07
8.34299e-07
3.62276e-09
-8.31046e-07
8.28374e-07
2.6691e-09
-8.26346e-07
8.25183e-07
1.16909e-09
-2.06865e-08
1.96806e-08
1.70963e-06
-1.72712e-06
1.734e-06
-8.866e-08
8.17734e-08
-1.73816e-06
1.73848e-06
-9.02037e-08
8.98877e-08
-1.73453e-06
1.72684e-06
-7.49107e-08
8.25974e-08
-1.71572e-06
1.70242e-06
-5.7443e-08
7.07407e-08
-1.68715e-06
1.67123e-06
-4.49797e-08
6.08941e-08
-1.65453e-06
1.63812e-06
-3.68937e-08
5.32952e-08
-1.62159e-06
1.60578e-06
-3.13233e-08
4.71286e-08
-1.59015e-06
1.57538e-06
-2.70381e-08
4.18005e-08
-1.5609e-06
1.54729e-06
-2.34756e-08
3.7077e-08
-1.534e-06
1.52155e-06
-2.04256e-08
3.28687e-08
-1.50942e-06
1.49809e-06
-1.77919e-08
2.91245e-08
-1.48706e-06
1.47678e-06
-1.54995e-08
2.57802e-08
-1.4668e-06
1.4575e-06
-1.34734e-08
2.27658e-08
-1.44851e-06
1.44016e-06
-1.1643e-08
1.99882e-08
-1.43211e-06
1.42469e-06
-9.88316e-09
1.73022e-08
-1.41761e-06
1.41115e-06
-7.95569e-09
1.4407e-08
-1.40512e-06
1.39974e-06
-4.96436e-09
1.03552e-08
-1.82402e-08
1.6668e-08
1.83287e-06
-1.83966e-06
1.84506e-06
-7.53693e-08
6.99616e-08
-1.85001e-06
1.85446e-06
-8.56133e-08
8.11655e-08
-1.85803e-06
1.86045e-06
-8.2085e-08
7.96658e-08
-1.8619e-06
1.86247e-06
-7.34013e-08
7.28237e-08
-1.86233e-06
1.8616e-06
-6.58859e-08
6.6618e-08
-1.86033e-06
1.85864e-06
-5.99098e-08
6.15959e-08
-1.8565e-06
1.85402e-06
-5.48344e-08
5.73187e-08
-1.85111e-06
1.84792e-06
-5.01757e-08
5.33613e-08
-1.84434e-06
1.84055e-06
-4.57723e-08
4.95726e-08
-1.8364e-06
1.83209e-06
-4.162e-08
4.59222e-08
-1.82749e-06
1.8228e-06
-3.77236e-08
4.24153e-08
-1.81787e-06
1.81291e-06
-3.40821e-08
3.90369e-08
-1.80777e-06
1.80267e-06
-3.06583e-08
3.57611e-08
-1.79743e-06
1.79231e-06
-2.73913e-08
3.25187e-08
-1.78711e-06
1.78208e-06
-2.41345e-08
2.91732e-08
-1.77703e-06
1.77219e-06
-2.0587e-08
2.54273e-08
-1.76736e-06
1.76265e-06
-1.59282e-08
2.06638e-08
-1.51657e-08
1.38733e-08
1.96399e-06
-1.96901e-06
1.97355e-06
-6.52692e-08
6.07196e-08
-1.97773e-06
1.98162e-06
-7.71806e-08
7.32924e-08
-1.98512e-06
1.98794e-06
-7.69836e-08
7.41603e-08
-1.99024e-06
1.99202e-06
-7.13936e-08
6.9615e-08
-1.99346e-06
1.99459e-06
-6.59976e-08
6.48663e-08
-1.99553e-06
1.99628e-06
-6.15027e-08
6.07579e-08
-1.99689e-06
1.99737e-06
-5.76269e-08
5.71516e-08
-1.99774e-06
1.998e-06
-5.40336e-08
5.37795e-08
-1.99816e-06
1.99822e-06
-5.0585e-08
5.05356e-08
-1.99817e-06
1.99804e-06
-4.72573e-08
4.73933e-08
-1.99781e-06
1.99752e-06
-4.40401e-08
4.4349e-08
-1.99712e-06
1.99667e-06
-4.09193e-08
4.13789e-08
-1.99614e-06
1.99556e-06
-3.78535e-08
3.84472e-08
-1.99489e-06
1.9942e-06
-3.47747e-08
3.54767e-08
-1.99343e-06
1.99265e-06
-3.15336e-08
3.23311e-08
-1.99179e-06
1.99089e-06
-2.78635e-08
2.87745e-08
-1.98985e-06
1.98866e-06
-2.33096e-08
2.45217e-08
-1.26745e-08
1.16189e-08
2.10465e-06
-2.10858e-06
2.11267e-06
-5.65488e-08
5.24594e-08
-2.11656e-06
2.12019e-06
-6.96921e-08
6.60624e-08
-2.12355e-06
2.12636e-06
-7.14358e-08
6.86175e-08
-2.12877e-06
2.13076e-06
-6.77728e-08
6.57834e-08
-2.13249e-06
2.13397e-06
-6.35569e-08
6.20748e-08
-2.13531e-06
2.1365e-06
-5.97599e-08
5.85671e-08
-2.13761e-06
2.13862e-06
-5.63538e-08
5.53466e-08
-2.13957e-06
2.14044e-06
-5.31418e-08
5.22725e-08
-2.14126e-06
2.14201e-06
-5.00333e-08
4.92836e-08
-2.14271e-06
2.14336e-06
-4.70143e-08
4.63635e-08
-2.14397e-06
2.14454e-06
-4.40744e-08
4.35117e-08
-2.14506e-06
2.14555e-06
-4.11978e-08
4.07046e-08
-2.14602e-06
2.14645e-06
-3.83415e-08
3.79104e-08
-2.14685e-06
2.14723e-06
-3.54385e-08
3.50579e-08
-2.14758e-06
2.1479e-06
-3.23562e-08
3.20401e-08
-2.14816e-06
2.14836e-06
-2.89104e-08
2.87102e-08
-2.14844e-06
2.14838e-06
-2.49275e-08
2.49949e-08
-1.06283e-08
9.75277e-09
2.25547e-06
-2.25862e-06
2.26225e-06
-4.8721e-08
4.50899e-08
-2.26591e-06
2.26939e-06
-6.2633e-08
5.91553e-08
-2.27267e-06
2.2755e-06
-6.58912e-08
6.30545e-08
-2.278e-06
2.28012e-06
-6.38027e-08
6.16809e-08
-2.28202e-06
2.28367e-06
-6.05581e-08
5.89006e-08
-2.2852e-06
2.28659e-06
-5.73204e-08
5.59348e-08
-2.2879e-06
2.28911e-06
-5.42684e-08
5.30552e-08
-2.29028e-06
2.29136e-06
-5.13212e-08
5.02321e-08
-2.29241e-06
2.2934e-06
-4.84362e-08
4.74513e-08
-2.29435e-06
2.29525e-06
-4.5606e-08
4.47062e-08
-2.29612e-06
2.29694e-06
-4.28287e-08
4.20042e-08
-2.29774e-06
2.2985e-06
-4.0086e-08
3.93221e-08
-2.29925e-06
2.29995e-06
-3.7345e-08
3.66381e-08
-2.30064e-06
2.30129e-06
-3.45452e-08
3.38925e-08
-2.30191e-06
2.30249e-06
-3.15926e-08
3.10176e-08
-2.30301e-06
2.30345e-06
-2.83839e-08
2.79399e-08
-2.3038e-06
2.30401e-06
-2.4909e-08
2.46971e-08
-8.92907e-09
8.20094e-09
2.41713e-06
-2.41966e-06
2.42283e-06
-4.18049e-08
3.86328e-08
-2.4262e-06
2.42949e-06
-5.58801e-08
5.25872e-08
-2.43268e-06
2.43552e-06
-6.03085e-08
5.7469e-08
-2.43809e-06
2.44033e-06
-5.95737e-08
5.73358e-08
-2.44237e-06
2.44417e-06
-5.72264e-08
5.54218e-08
-2.44586e-06
2.44739e-06
-5.4525e-08
5.29937e-08
-2.44886e-06
2.45021e-06
-5.18115e-08
5.04574e-08
-2.45152e-06
2.45275e-06
-4.91112e-08
4.78857e-08
-2.45395e-06
2.45507e-06
-4.64278e-08
4.53067e-08
-2.45617e-06
2.4572e-06
-4.37671e-08
4.27335e-08
-2.45822e-06
2.45918e-06
-4.11349e-08
4.01776e-08
-2.46012e-06
2.46102e-06
-3.85158e-08
3.76254e-08
-2.4619e-06
2.46273e-06
-3.58873e-08
3.50612e-08
-2.46354e-06
2.4643e-06
-3.32035e-08
3.24466e-08
-2.46503e-06
2.4657e-06
-3.04086e-08
2.97443e-08
-2.46632e-06
2.46685e-06
-2.7463e-08
2.69375e-08
-2.46729e-06
2.46762e-06
-2.44271e-08
2.41042e-08
-7.51427e-09
6.90697e-09
2.59041e-06
-2.59255e-06
2.59529e-06
-3.57822e-08
3.304e-08
-2.59835e-06
2.6014e-06
-4.95163e-08
4.64565e-08
-2.60445e-06
2.60724e-06
-5.47428e-08
5.19524e-08
-2.60984e-06
2.61216e-06
-5.5129e-08
5.28094e-08
-2.61431e-06
2.61625e-06
-5.36118e-08
5.16772e-08
-2.61807e-06
2.61974e-06
-5.14465e-08
4.97784e-08
-2.62134e-06
2.62283e-06
-4.90839e-08
4.75985e-08
-2.62427e-06
2.62562e-06
-4.66403e-08
4.52908e-08
-2.62693e-06
2.62818e-06
-4.41632e-08
4.29235e-08
-2.62939e-06
2.63054e-06
-4.16773e-08
4.05308e-08
-2.63166e-06
2.63273e-06
-3.91964e-08
3.8132e-08
-2.63378e-06
2.63477e-06
-3.67132e-08
3.57243e-08
-2.63574e-06
2.63666e-06
-3.4215e-08
3.3301e-08
-2.63755e-06
2.63838e-06
-3.16748e-08
3.08439e-08
-2.63918e-06
2.63991e-06
-2.90674e-08
2.8341e-08
-2.64058e-06
2.64117e-06
-2.63959e-08
2.58095e-08
-2.64168e-06
2.6421e-06
-2.37435e-08
2.33332e-08
-6.33249e-09
5.82336e-09
2.77621e-06
-2.77788e-06
2.78024e-06
-3.05809e-08
2.82169e-08
-2.78298e-06
2.78579e-06
-4.36216e-08
4.0811e-08
-2.78865e-06
2.79134e-06
-4.93012e-08
4.66107e-08
-2.79391e-06
2.79626e-06
-5.05501e-08
4.82036e-08
-2.79848e-06
2.80051e-06
-4.97597e-08
4.77341e-08
-2.80244e-06
2.80422e-06
-4.81097e-08
4.6329e-08
-2.80594e-06
2.80754e-06
-4.6106e-08
4.45054e-08
-2.8091e-06
2.81056e-06
-4.39319e-08
4.24709e-08
-2.81199e-06
2.81333e-06
-4.16728e-08
4.03266e-08
-2.81466e-06
2.8159e-06
-3.93732e-08
3.81265e-08
-2.81713e-06
2.81829e-06
-3.70569e-08
3.58996e-08
-2.81942e-06
2.8205e-06
-3.47267e-08
3.36543e-08
-2.82155e-06
2.82254e-06
-3.23808e-08
3.13942e-08
-2.8235e-06
2.82439e-06
-3.00102e-08
2.91184e-08
-2.82525e-06
2.82603e-06
-2.76126e-08
2.68337e-08
-2.82675e-06
2.8274e-06
-2.52152e-08
2.45737e-08
-2.82798e-06
2.82846e-06
-2.28984e-08
2.24124e-08
-5.34006e-09
4.91031e-09
2.97533e-06
-2.97681e-06
2.97885e-06
-2.60967e-08
2.40562e-08
-2.98129e-06
2.98386e-06
-3.82149e-08
3.56467e-08
-2.98653e-06
2.98909e-06
-4.40704e-08
4.15045e-08
-2.9916e-06
2.99393e-06
-4.59407e-08
4.36092e-08
-2.99618e-06
2.99825e-06
-4.57493e-08
4.36737e-08
-3.00026e-06
3.00212e-06
-4.45664e-08
4.27048e-08
-3.00393e-06
3.00562e-06
-4.2912e-08
4.1219e-08
-3.00727e-06
3.00883e-06
-4.10114e-08
3.94555e-08
-3.01036e-06
3.0118e-06
-3.89788e-08
3.75393e-08
-3.01321e-06
3.01455e-06
-3.68768e-08
3.5541e-08
-3.01586e-06
3.0171e-06
-3.47394e-08
3.34992e-08
-3.01832e-06
3.01947e-06
-3.25801e-08
3.14325e-08
-3.02059e-06
3.02165e-06
-3.04076e-08
2.93549e-08
-3.02267e-06
3.02362e-06
-2.82279e-08
2.72787e-08
-3.02453e-06
3.02537e-06
-2.60546e-08
2.52228e-08
-3.02615e-06
3.02685e-06
-2.39248e-08
2.32255e-08
-3.0275e-06
3.02806e-06
-2.19066e-08
2.13477e-08
-4.50085e-09
4.13547e-09
3.18877e-06
-3.19002e-06
3.19179e-06
-2.2223e-08
2.04543e-08
-3.19396e-06
3.1963e-06
-3.32779e-08
3.09362e-08
-3.19878e-06
3.20122e-06
-3.90896e-08
3.66557e-08
-3.20364e-06
3.20594e-06
-4.13742e-08
3.90815e-08
-3.20818e-06
3.21027e-06
-4.1656e-08
3.95591e-08
-3.21232e-06
3.21423e-06
-4.08782e-08
3.89632e-08
-3.21611e-06
3.21787e-06
-3.95482e-08
3.77867e-08
-3.2196e-06
3.22123e-06
-3.79138e-08
3.62829e-08
-3.22283e-06
3.22435e-06
-3.61092e-08
3.45935e-08
-3.22584e-06
3.22726e-06
-3.42116e-08
3.28012e-08
-3.22865e-06
3.22996e-06
-3.22644e-08
3.09534e-08
-3.23125e-06
3.23246e-06
-3.02901e-08
2.90774e-08
-3.23365e-06
3.23476e-06
-2.83076e-08
2.71961e-08
-3.23585e-06
3.23685e-06
-2.63338e-08
2.53311e-08
-3.23782e-06
3.23871e-06
-2.43914e-08
2.35071e-08
-3.23955e-06
3.24031e-06
-2.25188e-08
2.17605e-08
-3.24103e-06
3.24166e-06
-2.07706e-08
2.01387e-08
-3.83613e-09
3.56332e-09
2.87067e-06
-2.87157e-06
2.87288e-06
-1.88607e-08
1.75537e-08
-2.87453e-06
2.87633e-06
-2.87766e-08
2.69698e-08
-2.87828e-06
2.88022e-06
-3.43686e-08
3.24239e-08
-2.8822e-06
2.88409e-06
-3.68905e-08
3.49998e-08
-2.88596e-06
2.88773e-06
-3.75294e-08
3.57589e-08
-2.88947e-06
2.89112e-06
-3.70935e-08
3.54504e-08
-2.89273e-06
2.89426e-06
-3.60574e-08
3.45307e-08
-2.89576e-06
2.89719e-06
-3.46761e-08
3.32534e-08
-2.89859e-06
2.89992e-06
-3.30961e-08
3.17688e-08
-2.90123e-06
2.90247e-06
-3.14054e-08
3.01672e-08
-2.9037e-06
2.90485e-06
-2.96552e-08
2.85025e-08
-2.90599e-06
2.90706e-06
-2.78759e-08
2.68088e-08
-2.9081e-06
2.90908e-06
-2.60941e-08
2.51154e-08
-2.91004e-06
2.91093e-06
-2.43343e-08
2.34487e-08
-2.91179e-06
2.91258e-06
-2.2623e-08
2.18342e-08
-2.91334e-06
2.91403e-06
-2.09945e-08
2.03048e-08
-2.91469e-06
2.91529e-06
-1.949e-08
1.8898e-08
-3.26313e-09
2.99066e-09
3.49937e-06
-3.50029e-06
3.50163e-06
-1.63533e-08
1.50144e-08
-3.50334e-06
3.50526e-06
-2.52817e-08
2.33686e-08
-3.50735e-06
3.50948e-06
-3.05797e-08
2.84569e-08
-3.51166e-06
3.51378e-06
-3.31824e-08
3.10619e-08
-3.5159e-06
3.51793e-06
-3.40391e-08
3.20115e-08
-3.51995e-06
3.52186e-06
-3.3843e-08
3.19338e-08
-3.52375e-06
3.52554e-06
-3.30302e-08
3.12395e-08
-3.52731e-06
3.52899e-06
-3.18511e-08
3.01729e-08
-3.53065e-06
3.53223e-06
-3.04572e-08
2.88856e-08
-3.53378e-06
3.53526e-06
-2.8942e-08
2.74713e-08
-3.53671e-06
3.53808e-06
-2.73613e-08
2.59893e-08
-3.53943e-06
3.5407e-06
-2.57515e-08
2.44795e-08
-3.54195e-06
3.54312e-06
-2.4144e-08
2.29746e-08
-3.54426e-06
3.54533e-06
-2.25665e-08
2.15025e-08
-3.54636e-06
3.54732e-06
-2.10452e-08
2.00873e-08
-3.54824e-06
3.54909e-06
-1.96101e-08
1.87592e-08
-3.5499e-06
3.55065e-06
-1.82945e-08
1.75493e-08
-2.69187e-09
2.42176e-09
4.26567e-06
-4.26659e-06
4.26794e-06
-1.37931e-08
1.24418e-08
-4.2697e-06
4.2717e-06
-2.15952e-08
1.96024e-08
-4.27392e-06
4.2762e-06
-2.64579e-08
2.41749e-08
-4.27859e-06
4.28094e-06
-2.90358e-08
2.66886e-08
-4.28332e-06
4.28562e-06
-3.00518e-08
2.77546e-08
-4.28792e-06
4.29012e-06
-3.00739e-08
2.78743e-08
-4.29231e-06
4.2944e-06
-2.94858e-08
2.74e-08
-4.29647e-06
4.29844e-06
-2.85235e-08
2.65548e-08
-4.30039e-06
4.30225e-06
-2.73368e-08
2.54838e-08
-4.30408e-06
4.30582e-06
-2.6021e-08
2.42801e-08
-4.30754e-06
4.30916e-06
-2.46359e-08
2.30074e-08
-4.31076e-06
4.31227e-06
-2.32231e-08
2.17092e-08
-4.31375e-06
4.31514e-06
-2.18171e-08
2.04196e-08
-4.31651e-06
4.31778e-06
-2.04461e-08
1.91661e-08
-4.31902e-06
4.32018e-06
-1.91338e-08
1.79727e-08
-4.3213e-06
4.32234e-06
-1.79074e-08
1.68648e-08
-4.32334e-06
4.32428e-06
-1.67939e-08
1.58627e-08
-2.12624e-09
1.85908e-09
5.19997e-06
-5.20078e-06
5.20213e-06
-1.12146e-08
9.86263e-09
-5.20392e-06
5.20597e-06
-1.77657e-08
1.57118e-08
-5.2083e-06
5.21073e-06
-2.20377e-08
1.96094e-08
-5.2133e-06
5.21588e-06
-2.44584e-08
2.18872e-08
-5.21852e-06
5.2211e-06
-2.55462e-08
2.29673e-08
-5.2237e-06
5.22621e-06
-2.57417e-08
2.32268e-08
-5.22873e-06
5.23114e-06
-2.53652e-08
2.29493e-08
-5.23355e-06
5.23584e-06
-2.46259e-08
2.23251e-08
-5.23813e-06
5.2403e-06
-2.36634e-08
2.14843e-08
-5.24246e-06
5.2445e-06
-2.25695e-08
2.05161e-08
-5.24653e-06
5.24845e-06
-2.14066e-08
1.94828e-08
-5.25034e-06
5.25213e-06
-2.0219e-08
1.84263e-08
-5.25389e-06
5.25555e-06
-1.90412e-08
1.73794e-08
-5.25718e-06
5.2587e-06
-1.79004e-08
1.63686e-08
-5.2602e-06
5.2616e-06
-1.68193e-08
1.54158e-08
-5.26297e-06
5.26425e-06
-1.58197e-08
1.45396e-08
-5.26549e-06
5.26666e-06
-1.49189e-08
1.37519e-08
-1.56624e-09
1.29946e-09
6.33857e-06
-6.33957e-06
6.34092e-06
-8.63623e-09
7.28054e-09
-6.34273e-06
6.34484e-06
-1.38244e-08
1.17112e-08
-6.34727e-06
6.34983e-06
-1.73449e-08
1.47723e-08
-6.3526e-06
6.35539e-06
-1.94553e-08
1.66543e-08
-6.3583e-06
6.36117e-06
-2.0501e-08
1.76263e-08
-6.3641e-06
6.36695e-06
-2.08008e-08
1.79479e-08
-6.36982e-06
6.37259e-06
-2.06035e-08
1.78264e-08
-6.37537e-06
6.37804e-06
-2.00804e-08
1.74099e-08
-6.3807e-06
6.38324e-06
-1.93523e-08
1.6806e-08
-6.38577e-06
6.38818e-06
-1.85034e-08
1.6092e-08
-6.39057e-06
6.39284e-06
-1.75922e-08
1.5322e-08
-6.39508e-06
6.39721e-06
-1.66596e-08
1.45324e-08
-6.3993e-06
6.40129e-06
-1.57369e-08
1.37526e-08
-6.40324e-06
6.40509e-06
-1.48491e-08
1.30054e-08
-6.4069e-06
6.40861e-06
-1.40157e-08
1.23075e-08
-6.41028e-06
6.41186e-06
-1.32524e-08
1.1672e-08
-6.41341e-06
6.41487e-06
-1.25697e-08
1.11077e-08
-1.00422e-09
7.30481e-10
7.72727e-06
-7.72738e-06
7.72875e-06
-6.04617e-09
4.66373e-09
-7.73061e-06
7.7328e-06
-9.76579e-09
7.56957e-09
-7.73535e-06
7.73808e-06
-1.23736e-08
9.63491e-09
-7.74106e-06
7.7441e-06
-1.401e-08
1.09559e-08
-7.74731e-06
7.7505e-06
-1.48833e-08
1.16825e-08
-7.7538e-06
7.75702e-06
-1.52007e-08
1.19686e-08
-7.76031e-06
7.76349e-06
-1.51335e-08
1.19441e-08
-7.7667e-06
7.7698e-06
-1.48069e-08
1.17077e-08
-7.7729e-06
7.77588e-06
-1.43144e-08
1.13349e-08
-7.77885e-06
7.78169e-06
-1.3724e-08
1.08819e-08
-7.78451e-06
7.7872e-06
-1.3084e-08
1.03889e-08
-7.78987e-06
7.79241e-06
-1.24278e-08
9.88427e-09
-7.79493e-06
7.79732e-06
-1.17817e-08
9.39039e-09
-7.79968e-06
7.80192e-06
-1.1166e-08
8.92391e-09
-7.80413e-06
7.80623e-06
-1.05947e-08
8.49621e-09
-7.8083e-06
7.81026e-06
-1.00787e-08
8.11562e-09
-7.8122e-06
7.81403e-06
-9.62475e-09
7.78691e-09
-4.19784e-10
1.21345e-10
9.4193e-06
-9.42024e-06
9.4217e-06
-3.38708e-09
1.92227e-09
-9.42368e-06
9.42604e-06
-5.52097e-09
3.15915e-09
-9.4288e-06
9.43179e-06
-7.05479e-09
4.05804e-09
-9.43508e-06
9.43848e-06
-8.05039e-09
4.64965e-09
-9.44208e-06
9.4457e-06
-8.61005e-09
4.98856e-09
-9.44945e-06
9.45315e-06
-8.84176e-09
5.13408e-09
-9.45694e-06
9.46064e-06
-8.83936e-09
5.13938e-09
-9.46438e-06
9.468e-06
-8.67573e-09
5.04718e-09
-9.47165e-06
9.47516e-06
-8.40804e-09
4.89229e-09
-9.47868e-06
9.48205e-06
-8.07969e-09
4.70212e-09
-9.48542e-06
9.48864e-06
-7.72227e-09
4.49726e-09
-9.49185e-06
9.49491e-06
-7.35844e-09
4.29284e-09
-9.49796e-06
9.50085e-06
-7.00605e-09
4.10094e-09
-9.50374e-06
9.50648e-06
-6.67826e-09
3.93045e-09
-9.5092e-06
9.51179e-06
-6.38381e-09
3.7872e-09
-9.51437e-06
9.51681e-06
-6.12875e-09
3.67483e-09
-9.51925e-06
9.52156e-06
-5.91605e-09
3.59453e-09
2.37066e-10
-6.08164e-10
1.14824e-05
-1.14824e-05
1.14841e-05
-5.19897e-10
-1.16789e-09
-1.14864e-05
1.14892e-05
-8.8422e-10
-1.8568e-09
-1.14924e-05
1.14959e-05
-1.15697e-09
-2.3426e-09
-1.14997e-05
1.15037e-05
-1.34188e-09
-2.65222e-09
-1.1508e-05
1.15122e-05
-1.45103e-09
-2.82454e-09
-1.15167e-05
1.15211e-05
-1.499e-09
-2.89873e-09
-1.15256e-05
1.153e-05
-1.5003e-09
-2.90705e-09
-1.15345e-05
1.15388e-05
-1.46831e-09
-2.87179e-09
-1.15432e-05
1.15474e-05
-1.41566e-09
-2.80723e-09
-1.15516e-05
1.15557e-05
-1.35368e-09
-2.72152e-09
-1.15598e-05
1.15637e-05
-1.29172e-09
-2.61885e-09
-1.15676e-05
1.15713e-05
-1.23721e-09
-2.50088e-09
-1.15751e-05
1.15786e-05
-1.19647e-09
-2.36804e-09
-1.15822e-05
1.15856e-05
-1.17426e-09
-2.2202e-09
-1.1589e-05
1.15922e-05
-1.1737e-09
-2.05712e-09
-1.15954e-05
1.15985e-05
-1.19645e-09
-1.87929e-09
-1.16015e-05
1.16045e-05
-1.24258e-09
-1.68804e-09
8.99247e-10
-1.21382e-09
8.40632e-06
-8.40616e-06
8.40752e-06
2.90396e-09
-4.25512e-09
-8.40935e-06
8.41154e-06
4.66817e-09
-6.84432e-09
-8.41408e-06
8.41683e-06
5.91662e-09
-8.66069e-09
-8.41983e-06
8.42293e-06
6.71302e-09
-9.80408e-09
-8.42619e-06
8.42946e-06
7.15358e-09
-1.04224e-08
-8.43284e-06
8.43617e-06
7.33601e-09
-1.06638e-08
-8.43957e-06
8.44288e-06
7.34231e-09
-1.0651e-08
-8.44623e-06
8.44947e-06
7.23166e-09
-1.04719e-08
-8.45273e-06
8.45588e-06
7.04542e-09
-1.01876e-08
-8.45903e-06
8.46206e-06
6.81078e-09
-9.83871e-09
-8.46509e-06
8.468e-06
6.54487e-09
-9.45097e-09
-8.4709e-06
8.47369e-06
6.25779e-09
-9.03983e-09
-8.47647e-06
8.47913e-06
5.95602e-09
-8.61547e-09
-8.48178e-06
8.48432e-06
5.64348e-09
-8.18418e-09
-8.48686e-06
8.48929e-06
5.32232e-09
-7.74939e-09
-8.49171e-06
8.49403e-06
4.99468e-09
-7.31409e-09
-8.49635e-06
8.49856e-06
4.66272e-09
-6.88079e-09
1.51847e-09
-1.86037e-09
7.31734e-06
-7.31821e-06
7.31962e-06
5.72062e-09
-7.12698e-09
-7.32151e-06
7.32373e-06
9.18142e-09
-1.1397e-08
-7.32629e-06
7.32901e-06
1.1573e-08
-1.42939e-08
-7.33195e-06
7.33495e-06
1.30471e-08
-1.60346e-08
-7.33807e-06
7.34116e-06
1.38173e-08
-1.69056e-08
-7.34432e-06
7.34741e-06
1.40909e-08
-1.71772e-08
-7.35054e-06
7.35356e-06
1.40359e-08
-1.70603e-08
-7.3566e-06
7.35953e-06
1.37706e-08
-1.67004e-08
-7.36247e-06
7.36529e-06
1.33757e-08
-1.61953e-08
-7.36811e-06
7.37082e-06
1.29042e-08
-1.56076e-08
-7.37352e-06
7.37611e-06
1.23895e-08
-1.49763e-08
-7.37869e-06
7.38116e-06
1.18515e-08
-1.43243e-08
-7.38363e-06
7.386e-06
1.13034e-08
-1.36664e-08
-7.38836e-06
7.39062e-06
1.07532e-08
-1.30117e-08
-7.39287e-06
7.39504e-06
1.02052e-08
-1.23648e-08
-7.39719e-06
7.39926e-06
9.66315e-09
-1.17295e-08
-7.40133e-06
7.40331e-06
9.12989e-09
-1.11088e-08
2.20011e-09
-2.58923e-09
6.37039e-06
-6.37135e-06
6.37289e-06
8.70045e-09
-1.02534e-08
-6.37495e-06
6.37731e-06
1.38401e-08
-1.62067e-08
-6.37999e-06
6.38279e-06
1.72439e-08
-2.00455e-08
-6.38577e-06
6.38874e-06
1.92208e-08
-2.21916e-08
-6.39179e-06
6.39477e-06
2.0152e-08
-2.31297e-08
-6.39778e-06
6.40069e-06
2.03828e-08
-2.32844e-08
-6.4036e-06
6.40639e-06
2.01727e-08
-2.29625e-08
-6.40917e-06
6.41184e-06
1.96959e-08
-2.2361e-08
-6.4145e-06
6.41705e-06
1.90654e-08
-2.16056e-08
-6.41958e-06
6.422e-06
1.8351e-08
-2.07721e-08
-6.42441e-06
6.42672e-06
1.75963e-08
-1.99046e-08
-6.42902e-06
6.43123e-06
1.68262e-08
-1.90276e-08
-6.43342e-06
6.43552e-06
1.6056e-08
-1.81569e-08
-6.43762e-06
6.43963e-06
1.52953e-08
-1.73018e-08
-6.44163e-06
6.44355e-06
1.45486e-08
-1.6467e-08
-6.44547e-06
6.44731e-06
1.38198e-08
-1.56558e-08
-6.44914e-06
6.4509e-06
1.31117e-08
-1.48705e-08
2.98139e-09
-3.43435e-09
5.54545e-06
-5.54755e-06
5.54932e-06
1.20205e-08
-1.37933e-08
-5.55161e-06
5.5542e-06
1.88516e-08
-2.14397e-08
-5.55706e-06
5.55999e-06
2.31136e-08
-2.60475e-08
-5.56304e-06
5.56603e-06
2.53819e-08
-2.83682e-08
-5.56904e-06
5.57192e-06
2.62738e-08
-2.91626e-08
-5.5748e-06
5.57754e-06
2.63061e-08
-2.90417e-08
-5.58025e-06
5.58282e-06
2.58363e-08
-2.84107e-08
-5.58537e-06
5.58779e-06
2.50861e-08
-2.75087e-08
-5.5902e-06
5.59249e-06
2.41907e-08
-2.64749e-08
-5.59476e-06
5.59692e-06
2.32272e-08
-2.53889e-08
-5.59907e-06
5.60113e-06
2.22398e-08
-2.42915e-08
-5.60317e-06
5.60513e-06
2.12524e-08
-2.32028e-08
-5.60707e-06
5.60893e-06
2.02783e-08
-2.21366e-08
-5.61079e-06
5.61256e-06
1.93268e-08
-2.11003e-08
-5.61433e-06
5.61602e-06
1.84025e-08
-2.00967e-08
-5.61771e-06
5.61934e-06
1.75079e-08
-1.91283e-08
-5.62095e-06
5.62251e-06
1.66451e-08
-1.81961e-08
3.89114e-09
-4.41334e-09
4.82852e-06
-4.82982e-06
4.83189e-06
1.58365e-08
-1.79073e-08
-4.8345e-06
4.83734e-06
2.43465e-08
-2.71951e-08
-4.84042e-06
4.84349e-06
2.92663e-08
-3.23435e-08
-4.84661e-06
4.8496e-06
3.15719e-08
-3.45624e-08
-4.85255e-06
4.85534e-06
3.22049e-08
-3.49887e-08
-4.85806e-06
4.86062e-06
3.1881e-08
-3.44385e-08
-4.86312e-06
4.86547e-06
3.10534e-08
-3.34068e-08
-4.86778e-06
4.86995e-06
2.99768e-08
-3.21576e-08
-4.8721e-06
4.87414e-06
2.87919e-08
-3.08267e-08
-4.87615e-06
4.87806e-06
2.75731e-08
-2.94839e-08
-4.87996e-06
4.88176e-06
2.63579e-08
-2.81612e-08
-4.88355e-06
4.88527e-06
2.51645e-08
-2.68705e-08
-4.88697e-06
4.88859e-06
2.40027e-08
-2.56222e-08
-4.89021e-06
4.89175e-06
2.28785e-08
-2.442e-08
-4.89329e-06
4.89476e-06
2.1794e-08
-2.32633e-08
-4.89623e-06
4.89764e-06
2.07507e-08
-2.21535e-08
-4.89904e-06
4.90039e-06
1.97488e-08
-2.10908e-08
4.9259e-09
-5.48131e-09
4.20355e-06
-4.20415e-06
4.2066e-06
2.03164e-08
-2.27709e-08
-4.20955e-06
4.21266e-06
3.03888e-08
-3.35002e-08
-4.21594e-06
4.21914e-06
3.57103e-08
-3.89079e-08
-4.22229e-06
4.22524e-06
3.77531e-08
-4.07033e-08
-4.22809e-06
4.23072e-06
3.78981e-08
-4.053e-08
-4.23325e-06
4.23558e-06
3.70675e-08
-3.94055e-08
-4.23784e-06
4.23994e-06
3.57973e-08
-3.78981e-08
-4.24198e-06
4.2439e-06
3.43553e-08
-3.62717e-08
-4.24577e-06
4.24754e-06
3.28685e-08
-3.46395e-08
-4.24929e-06
4.25094e-06
3.13955e-08
-3.30479e-08
-4.25257e-06
4.25412e-06
2.99608e-08
-3.15125e-08
-4.25566e-06
4.25712e-06
2.85715e-08
-3.00328e-08
-4.25857e-06
4.25996e-06
2.72334e-08
-2.86135e-08
-4.26133e-06
4.26264e-06
2.59494e-08
-2.72565e-08
-4.26394e-06
4.26519e-06
2.47182e-08
-2.59588e-08
-4.26642e-06
4.26761e-06
2.35409e-08
-2.47207e-08
-4.26879e-06
4.26992e-06
2.24171e-08
-2.35424e-08
5.97494e-09
-6.41528e-09
3.65844e-06
-3.6615e-06
3.66442e-06
2.56396e-08
-2.85613e-08
-3.6677e-06
3.67103e-06
3.69612e-08
-4.02974e-08
-3.67447e-06
3.67772e-06
4.23759e-08
-4.56315e-08
-3.68084e-06
3.68368e-06
4.38147e-08
-4.66545e-08
-3.68636e-06
3.68878e-06
4.32443e-08
-4.56678e-08
-3.69107e-06
3.69315e-06
4.17752e-08
-4.38557e-08
-3.69513e-06
3.69695e-06
4.00023e-08
-4.18278e-08
-3.69871e-06
3.70034e-06
3.81773e-08
-3.98156e-08
-3.70194e-06
3.70343e-06
3.63919e-08
-3.7888e-08
-3.7049e-06
3.70628e-06
3.46762e-08
-3.60581e-08
-3.70764e-06
3.70892e-06
3.30363e-08
-3.43217e-08
-3.71019e-06
3.71139e-06
3.14651e-08
-3.26658e-08
-3.71257e-06
3.7137e-06
2.99627e-08
-3.10876e-08
-3.71481e-06
3.71587e-06
2.85308e-08
-2.95871e-08
-3.71691e-06
3.71791e-06
2.71646e-08
-2.81594e-08
-3.71889e-06
3.71983e-06
2.58644e-08
-2.68033e-08
-3.72077e-06
3.72166e-06
2.46314e-08
-2.5518e-08
6.69389e-09
-6.77045e-09
3.18508e-06
-3.18783e-06
3.19125e-06
3.19617e-08
-3.53823e-08
-3.19476e-06
3.19827e-06
4.39661e-08
-4.74803e-08
-3.20182e-06
3.20509e-06
4.91206e-08
-5.23821e-08
-3.20812e-06
3.21082e-06
4.9618e-08
-5.23161e-08
-3.2133e-06
3.2155e-06
4.81411e-08
-5.03363e-08
-3.21752e-06
3.21932e-06
4.59388e-08
-4.77406e-08
-3.221e-06
3.22251e-06
4.36269e-08
-4.51452e-08
-3.22395e-06
3.22526e-06
4.14109e-08
-4.27235e-08
-3.22651e-06
3.22767e-06
3.93284e-08
-4.04867e-08
-3.22878e-06
3.22982e-06
3.73737e-08
-3.84094e-08
-3.23082e-06
3.23175e-06
3.55342e-08
-3.64667e-08
-3.23266e-06
3.2335e-06
3.37875e-08
-3.46312e-08
-3.23432e-06
3.23509e-06
3.21274e-08
-3.28932e-08
-3.23583e-06
3.23653e-06
3.05547e-08
-3.12503e-08
-3.2372e-06
3.23784e-06
2.90616e-08
-2.96954e-08
-3.23845e-06
3.23903e-06
2.76465e-08
-2.82267e-08
-3.2396e-06
3.24013e-06
2.63126e-08
-2.6842e-08
6.41706e-09
-4.69902e-09
2.77128e-06
-2.77616e-06
2.78003e-06
3.92677e-08
-4.31435e-08
-2.78382e-06
2.78769e-06
5.13864e-08
-5.52545e-08
-2.7915e-06
2.79486e-06
5.5907e-08
-5.92684e-08
-2.79788e-06
2.80043e-06
5.51419e-08
-5.77005e-08
-2.80267e-06
2.80452e-06
5.25478e-08
-5.44001e-08
-2.80611e-06
2.8074e-06
4.94737e-08
-5.07757e-08
-2.80851e-06
2.80941e-06
4.6532e-08
-4.74352e-08
-2.81016e-06
2.81077e-06
4.38639e-08
-4.44737e-08
-2.81128e-06
2.81167e-06
4.144e-08
-4.18304e-08
-2.81197e-06
2.81219e-06
3.92132e-08
-3.94308e-08
-2.81233e-06
2.8124e-06
3.71503e-08
-3.72191e-08
-2.81241e-06
2.81235e-06
3.52093e-08
-3.5151e-08
-2.81223e-06
2.81206e-06
3.33767e-08
-3.32077e-08
-2.81183e-06
2.81157e-06
3.16525e-08
-3.13811e-08
-2.81124e-06
2.81088e-06
3.00234e-08
-2.96617e-08
-2.81047e-06
2.81003e-06
2.84878e-08
-2.80489e-08
-2.80954e-06
2.80903e-06
2.70516e-08
-2.65428e-08
9.60907e-10
8.67176e-10
2.41117e-06
-2.41747e-06
2.42321e-06
4.78665e-08
-5.36107e-08
-2.42864e-06
2.43369e-06
5.98315e-08
-6.48762e-08
-2.43791e-06
2.44101e-06
6.292e-08
-6.60207e-08
-2.44321e-06
2.44445e-06
6.01851e-08
-6.14273e-08
-2.44486e-06
2.44448e-06
5.58384e-08
-5.54598e-08
-2.4434e-06
2.44175e-06
5.13961e-08
-4.97499e-08
-2.43955e-06
2.43695e-06
4.74496e-08
-4.48641e-08
-2.43393e-06
2.43065e-06
4.40438e-08
-4.07609e-08
-2.42702e-06
2.42324e-06
4.10511e-08
-3.72603e-08
-2.41916e-06
2.41499e-06
3.83644e-08
-3.42031e-08
-2.41059e-06
2.40616e-06
3.59155e-08
-3.14779e-08
-2.40153e-06
2.39691e-06
3.36386e-08
-2.90167e-08
-2.39213e-06
2.38739e-06
3.15124e-08
-2.67799e-08
-2.38252e-06
2.37773e-06
2.95325e-08
-2.47398e-08
-2.37283e-06
2.36803e-06
2.76804e-08
-2.28796e-08
-2.36314e-06
2.35837e-06
2.59557e-08
-2.11901e-08
-2.35352e-06
2.34882e-06
2.43688e-08
-1.96684e-08
2.95521e-08
2.07145e-06
-2.14046e-06
2.13882e-06
6.08493e-08
-5.92181e-08
-2.13455e-06
2.12674e-06
7.03383e-08
-6.25137e-08
-2.11538e-06
2.101e-06
6.66751e-08
-5.22863e-08
-2.08347e-06
2.06417e-06
5.78937e-08
-3.85911e-08
-2.04322e-06
2.02222e-06
4.86726e-08
-2.76706e-08
-2.00085e-06
1.98039e-06
4.08252e-08
-2.03722e-08
-1.96024e-06
1.94138e-06
3.47518e-08
-1.5901e-08
-1.92307e-06
1.9061e-06
3.01531e-08
-1.3173e-08
-1.8897e-06
1.87452e-06
2.65913e-08
-1.14088e-08
-1.85985e-06
1.84624e-06
2.3736e-08
-1.01405e-08
-1.83307e-06
1.82083e-06
2.13696e-08
-9.12362e-09
-1.80895e-06
1.79788e-06
1.93392e-08
-8.26283e-09
-1.7871e-06
1.77703e-06
1.75673e-08
-7.50536e-09
-1.76721e-06
1.75803e-06
1.6008e-08
-6.82142e-09
-1.74906e-06
1.74065e-06
1.46204e-08
-6.21202e-09
-1.73242e-06
1.7247e-06
1.33884e-08
-5.67334e-09
-1.71713e-06
1.71003e-06
1.23194e-08
-5.2225e-09
2.21806e-10
-7.84613e-09
7.68134e-09
-5.69326e-09
1.50668e-08
-9.27029e-09
-2.60159e-08
3.72443e-08
-1.1175e-08
-4.76701e-08
5.69072e-08
-9.21153e-09
-6.45569e-08
7.05419e-08
-5.98134e-09
-7.47958e-08
7.73351e-08
-2.5494e-09
-7.82195e-08
7.74955e-08
7.06511e-10
-7.53817e-08
7.19739e-08
3.38458e-09
-6.75269e-08
6.20832e-08
5.41414e-09
-5.58965e-08
4.89236e-08
6.93346e-09
-4.1378e-08
3.3156e-08
8.17063e-09
-2.44663e-08
1.51312e-08
9.26725e-09
-5.3951e-09
-4.99055e-09
1.02976e-08
1.5768e-08
-2.72241e-08
1.13471e-08
3.90428e-08
-5.1552e-08
1.23811e-08
6.43581e-08
-7.7866e-08
1.33631e-08
9.16385e-08
-1.06058e-07
1.42608e-08
1.20707e-07
-1.35969e-07
1.50923e-08
1.51407e-07
-1.67461e-07
1.58722e-08
1.83559e-07
-2.00263e-07
1.65114e-08
2.16952e-07
-2.34218e-07
1.70622e-08
2.51439e-07
-2.69106e-07
1.74524e-08
2.86714e-07
-3.04718e-07
1.77796e-08
3.22615e-07
-3.40851e-07
1.80051e-08
3.58933e-07
-3.77378e-07
1.82119e-08
3.95488e-07
-4.13987e-07
1.8271e-08
4.32114e-07
-4.50584e-07
1.82607e-08
4.68658e-07
-4.87045e-07
1.8202e-08
5.05023e-07
-5.23276e-07
1.80956e-08
5.41118e-07
-5.59221e-07
1.7958e-08
5.76897e-07
-5.94846e-07
1.77821e-08
6.12329e-07
-6.30138e-07
1.75864e-08
6.47402e-07
-6.65071e-07
1.73585e-08
6.82092e-07
-6.99597e-07
1.70918e-08
7.1634e-07
-7.33477e-07
1.66102e-08
7.50014e-07
-7.6679e-07
1.62382e-08
7.8304e-07
-7.99433e-07
1.60107e-08
8.15401e-07
-8.31535e-07
1.60487e-08
8.47464e-07
-8.63215e-07
1.60645e-08
8.78605e-07
-8.92172e-07
1.4218e-08
9.06246e-07
-9.20277e-07
1.48589e-08
9.35177e-07
-9.49366e-07
1.49951e-08
9.6376e-07
-9.77885e-07
1.46455e-08
9.93062e-07
-1.00994e-06
1.69143e-08
1.02787e-06
-1.04893e-06
2.0497e-08
1.06521e-06
-1.07505e-06
8.80873e-09
1.08738e-06
-1.10282e-06
1.46528e-08
1.11869e-06
-1.13522e-06
1.63635e-08
1.1512e-06
-1.15835e-06
7.4447e-09
1.16812e-06
-1.18792e-06
2.00186e-08
1.21466e-06
-1.23325e-06
1.8365e-08
1.23974e-06
-1.25154e-06
1.11281e-08
1.26597e-06
-1.2827e-06
1.58775e-08
1.29921e-06
-1.31598e-06
1.59405e-08
1.33112e-06
-1.34892e-06
1.70675e-08
1.36751e-06
-1.38358e-06
1.54533e-08
1.39762e-06
-1.41393e-06
1.57679e-08
1.43021e-06
-1.44672e-06
1.60364e-08
1.46293e-06
-1.4801e-06
1.67549e-08
1.4967e-06
-1.51383e-06
1.67721e-08
1.53068e-06
-1.54799e-06
1.70121e-08
1.56506e-06
-1.58253e-06
1.72234e-08
1.5998e-06
-1.61743e-06
1.74161e-08
1.63489e-06
-1.65268e-06
1.76067e-08
1.67033e-06
-1.68828e-06
1.77957e-08
1.7061e-06
-1.72421e-06
1.79789e-08
1.74223e-06
-1.76049e-06
1.8151e-08
1.77868e-06
-1.7971e-06
1.83225e-08
1.81545e-06
-1.83401e-06
1.84791e-08
1.85251e-06
-1.87121e-06
1.86229e-08
1.88984e-06
-1.90866e-06
1.87493e-08
1.92741e-06
-1.94632e-06
1.88525e-08
1.96516e-06
-1.98412e-06
1.8923e-08
2.00299e-06
-2.02155e-06
1.85273e-08
2.04043e-06
-2.05941e-06
1.89665e-08
2.07832e-06
-2.09728e-06
1.89597e-08
2.11615e-06
-2.135e-06
1.88572e-08
2.1533e-06
-2.172e-06
1.87229e-08
2.19061e-06
-2.20915e-06
1.85756e-08
2.22755e-06
-2.24537e-06
1.78638e-08
2.26349e-06
-2.28146e-06
1.80357e-08
2.29926e-06
-2.31638e-06
1.71787e-08
2.33376e-06
-2.35091e-06
1.72257e-08
2.36783e-06
-2.38394e-06
1.6207e-08
2.40028e-06
-2.4162e-06
1.60904e-08
2.43141e-06
-2.44658e-06