/*--------------------------------*- C++ -*----------------------------------*\
  =========                 |
  \\      /  F ield         | OpenFOAM: The Open Source CFD Toolbox
   \\    /   O peration     | Website:  https://openfoam.org
    \\  /    A nd           | Version:  7
     \\/     M anipulation  |
\*---------------------------------------------------------------------------*/
FoamFile
{
    version     2.0;
    format      ascii;
    class       volVectorField;
    location    "200";
    object      U;
}
// * * * * * * * * * * * * * * * * * * * * * * * * * * * * * * * * * * * * * //

dimensions      [0 1 -1 0 0 0 0];

internalField   nonuniform List<vector> 
48900
(
(10.1555 0.422377 0)
(8.8163 -0.790453 0)
(7.84547 -0.15526 0)
(7.12413 -0.00351261 0)
(6.67315 0.0205756 0)
(6.38785 0.0217624 0)
(6.17881 0.0195785 0)
(6.00545 0.0168966 0)
(5.85493 0.0142865 0)
(5.72372 0.0120162 0)
(5.61019 0.0101593 0)
(5.51237 0.008692 0)
(5.42833 0.00748134 0)
(5.35641 0.00644701 0)
(5.29526 0.00550161 0)
(5.24418 0.00452089 0)
(5.20368 0.00330031 0)
(5.17679 0.00338027 0)
(9.99731 0.0258523 0)
(10.133 0.0871793 0)
(10.1786 0.100043 0)
(10.1349 0.10564 0)
(10.0062 0.0956073 0)
(9.8293 0.0848616 0)
(9.63579 0.0760507 0)
(9.44421 0.0686992 0)
(9.26302 0.0622574 0)
(9.09516 0.0565045 0)
(8.94112 0.051359 0)
(8.80054 0.0467628 0)
(8.67277 0.0426097 0)
(8.55706 0.0387816 0)
(8.45277 0.0351213 0)
(8.35953 0.0313318 0)
(8.27742 0.0267509 0)
(8.20757 0.0190107 0)
(10.0006 0.020796 0)
(10.0608 0.0954157 0)
(10.1153 0.115824 0)
(10.1542 0.116088 0)
(10.17 0.109374 0)
(10.1685 0.103523 0)
(10.1548 0.0992235 0)
(10.1316 0.0957369 0)
(10.1002 0.092372 0)
(10.0616 0.0888634 0)
(10.0167 0.085182 0)
(9.96699 0.0813555 0)
(9.91363 0.0774014 0)
(9.85802 0.0732768 0)
(9.80144 0.0688554 0)
(9.74522 0.0638147 0)
(9.69064 0.0573821 0)
(9.63856 0.0475601 0)
(10.0006 0.018471 0)
(10.0438 0.0829616 0)
(10.0867 0.102878 0)
(10.1221 0.107808 0)
(10.1454 0.10487 0)
(10.1599 0.101454 0)
(10.1694 0.0987849 0)
(10.1756 0.0966394 0)
(10.1793 0.0946032 0)
(10.1809 0.092487 0)
(10.1805 0.0902417 0)
(10.1783 0.0878525 0)
(10.1743 0.0852844 0)
(10.169 0.0824449 0)
(10.1623 0.0791522 0)
(10.1547 0.0750399 0)
(10.146 0.0694087 0)
(10.1356 0.0611575 0)
(10.0005 0.0153095 0)
(10.0335 0.071582 0)
(10.071 0.0929917 0)
(10.1025 0.0999575 0)
(10.1252 0.0993221 0)
(10.1415 0.0973431 0)
(10.1542 0.0955143 0)
(10.1646 0.09392 0)
(10.1736 0.092331 0)
(10.1813 0.0906242 0)
(10.188 0.0887635 0)
(10.1938 0.086734 0)
(10.1988 0.084496 0)
(10.2032 0.081955 0)
(10.207 0.0789335 0)
(10.2103 0.075116 0)
(10.2129 0.0700199 0)
(10.2137 0.0632087 0)
(10.0005 0.012853 0)
(10.0256 0.0616111 0)
(10.0585 0.0834099 0)
(10.0872 0.0920328 0)
(10.1092 0.0933196 0)
(10.1259 0.0925537 0)
(10.1393 0.0914059 0)
(10.1509 0.0902178 0)
(10.1611 0.08892 0)
(10.1704 0.0874582 0)
(10.1788 0.0858051 0)
(10.1864 0.083955 0)
(10.1935 0.0818611 0)
(10.2001 0.0794455 0)
(10.2061 0.076548 0)
(10.2116 0.0729439 0)
(10.2162 0.0683514 0)
(10.2193 0.0627153 0)
(10.0004 0.0108035 0)
(10.0197 0.0528154 0)
(10.0478 0.0742664 0)
(10.0739 0.0840508 0)
(10.0951 0.0869379 0)
(10.1118 0.0872741 0)
(10.1256 0.0867729 0)
(10.1376 0.085964 0)
(10.1483 0.0849235 0)
(10.1581 0.0836612 0)
(10.1672 0.0821723 0)
(10.1755 0.0804573 0)
(10.1832 0.0784771 0)
(10.1904 0.0761685 0)
(10.1971 0.07341 0)
(10.2031 0.0700604 0)
(10.2082 0.0659988 0)
(10.2118 0.0613376 0)
(10.0004 0.00909627 0)
(10.0151 0.0451868 0)
(10.0389 0.0656977 0)
(10.0621 0.0761258 0)
(10.082 0.0802542 0)
(10.0985 0.0815646 0)
(10.1125 0.0816886 0)
(10.1247 0.0812646 0)
(10.1357 0.080485 0)
(10.1458 0.0794187 0)
(10.1551 0.0780903 0)
(10.1637 0.07651 0)
(10.1717 0.074654 0)
(10.1792 0.0724771 0)
(10.186 0.069902 0)
(10.1921 0.0668584 0)
(10.1973 0.0633321 0)
(10.2012 0.059495 0)
(10.0003 0.00766841 0)
(10.0118 0.0386058 0)
(10.0316 0.0577902 0)
(10.0519 0.0684207 0)
(10.0703 0.0734122 0)
(10.0862 0.0755148 0)
(10.1 0.0762039 0)
(10.1122 0.0761558 0)
(10.1233 0.0756404 0)
(10.1335 0.0747753 0)
(10.143 0.0736139 0)
(10.1517 0.0721807 0)
(10.1598 0.0704698 0)
(10.1673 0.0684579 0)
(10.1742 0.0661089 0)
(10.1803 0.0634074 0)
(10.1855 0.0604003 0)
(10.1896 0.0572625 0)
(10.0003 0.00646716 0)
(10.0092 0.0329312 0)
(10.0257 0.0505501 0)
(10.0434 0.0610393 0)
(10.0601 0.0665609 0)
(10.0751 0.0692539 0)
(10.0884 0.0704117 0)
(10.1005 0.0707019 0)
(10.1115 0.0704376 0)
(10.1216 0.0697716 0)
(10.131 0.0687822 0)
(10.1398 0.0675088 0)
(10.1479 0.0659643 0)
(10.1554 0.0641476 0)
(10.1622 0.0620573 0)
(10.1683 0.059716 0)
(10.1735 0.0571994 0)
(10.1778 0.054663 0)
(10.0002 0.00545488 0)
(10.0073 0.0280246 0)
(10.021 0.0439442 0)
(10.0364 0.0540227 0)
(10.0514 0.0597946 0)
(10.0654 0.0628902 0)
(10.0781 0.0644105 0)
(10.0897 0.0649843 0)
(10.1004 0.0649431 0)
(10.1104 0.0644636 0)
(10.1197 0.0636435 0)
(10.1283 0.0625371 0)
(10.1363 0.0611736 0)
(10.1437 0.0595731 0)
(10.1504 0.0577598 0)
(10.1564 0.0557799 0)
(10.1617 0.0537161 0)
(10.1661 0.0516989 0)
(10.0002 0.00466781 0)
(10.0059 0.0239313 0)
(10.0174 0.0381674 0)
(10.0308 0.0476507 0)
(10.0444 0.0534367 0)
(10.0573 0.0567564 0)
(10.0693 0.0585257 0)
(10.0805 0.0593162 0)
(10.0909 0.0594582 0)
(10.1006 0.0591413 0)
(10.1096 0.0584771 0)
(10.118 0.0575318 0)
(10.1259 0.0563488 0)
(10.1331 0.0549652 0)
(10.1397 0.0534217 0)
(10.1456 0.0517742 0)
(10.1508 0.050102 0)
(10.1554 0.048512 0)
(10.0001 0.00394334 0)
(10.0049 0.0205977 0)
(10.0147 0.0332898 0)
(10.0265 0.0421005 0)
(10.0389 0.0477393 0)
(10.0509 0.0511399 0)
(10.0623 0.0530569 0)
(10.073 0.0539988 0)
(10.083 0.054282 0)
(10.0924 0.0540996 0)
(10.1012 0.0535705 0)
(10.1095 0.0527699 0)
(10.1171 0.0517531 0)
(10.1242 0.050568 0)
(10.1306 0.0492636 0)
(10.1365 0.047897 0)
(10.1417 0.0465431 0)
(10.1463 0.0452925 0)
(10.0001 0.00322481 0)
(10.004 0.0172191 0)
(10.0123 0.0281756 0)
(10.0226 0.0360908 0)
(10.0336 0.0413925 0)
(10.0447 0.0447434 0)
(10.0554 0.0467314 0)
(10.0655 0.0477864 0)
(10.0752 0.0481964 0)
(10.0842 0.048148 0)
(10.0927 0.0477614 0)
(10.1007 0.0471204 0)
(10.1081 0.0462905 0)
(10.115 0.0453261 0)
(10.1213 0.0442798 0)
(10.1271 0.0432084 0)
(10.1323 0.0421802 0)
(10.137 0.041267 0)
(10.0001 0.00251375 0)
(10.0033 0.0138258 0)
(10.0101 0.0228807 0)
(10.019 0.0296675 0)
(10.0288 0.0344074 0)
(10.0388 0.037534 0)
(10.0488 0.0394759 0)
(10.0583 0.0405746 0)
(10.0675 0.0410751 0)
(10.0762 0.0411461 0)
(10.0844 0.0409039 0)
(10.0921 0.0404356 0)
(10.0993 0.0398095 0)
(10.106 0.0390819 0)
(10.1122 0.0383058 0)
(10.1179 0.0375363 0)
(10.1231 0.0368291 0)
(10.1279 0.0362334 0)
(10.0001 0.00180794 0)
(10.0027 0.0104335 0)
(10.0084 0.0174384 0)
(10.0159 0.0228603 0)
(10.0245 0.0267884 0)
(10.0336 0.0294795 0)
(10.0428 0.0312204 0)
(10.0518 0.0322592 0)
(10.0604 0.0327867 0)
(10.0687 0.032944 0)
(10.0766 0.0328361 0)
(10.0841 0.0325435 0)
(10.0911 0.0321281 0)
(10.0977 0.0316428 0)
(10.1038 0.0311361 0)
(10.1094 0.0306543 0)
(10.1147 0.0302395 0)
(10.1195 0.0299277 0)
(10.0001 0.00109437 0)
(10.0022 0.00701359 0)
(10.007 0.0118253 0)
(10.0135 0.0156479 0)
(10.0211 0.0185022 0)
(10.0294 0.0205214 0)
(10.0378 0.0218734 0)
(10.0462 0.0227146 0)
(10.0544 0.0231753 0)
(10.0624 0.0233589 0)
(10.07 0.0233469 0)
(10.0772 0.0232032 0)
(10.0841 0.0229787 0)
(10.0905 0.0227175 0)
(10.0966 0.0224585 0)
(10.1022 0.0222361 0)
(10.1075 0.0220805 0)
(10.1125 0.0220161 0)
(10.0001 0.000340236 0)
(10.0019 0.00347118 0)
(10.0061 0.00591107 0)
(10.0119 0.00788804 0)
(10.0188 0.00939731 0)
(10.0264 0.0104897 0)
(10.0343 0.0112374 0)
(10.0422 0.0117135 0)
(10.0501 0.0119835 0)
(10.0578 0.0121037 0)
(10.0652 0.0121212 0)
(10.0722 0.0120751 0)
(10.079 0.0119983 0)
(10.0854 0.0119196 0)
(10.0914 0.0118645 0)
(10.0971 0.0118547 0)
(10.1026 0.0119085 0)
(10.1077 0.0120391 0)
(10.0001 -0.000532296 0)
(10.0018 -0.000426059 0)
(10.0058 -0.000664341 0)
(10.0113 -0.000844365 0)
(10.018 -0.000973896 0)
(10.0253 -0.00106551 0)
(10.033 -0.00113281 0)
(10.0407 -0.0011867 0)
(10.0485 -0.0012331 0)
(10.056 -0.0012724 0)
(10.0633 -0.00130057 0)
(10.0703 -0.00131119 0)
(10.0771 -0.0012964 0)
(10.0835 -0.00124694 0)
(10.0896 -0.0011534 0)
(10.0954 -0.00100708 0)
(10.101 -0.000800683 0)
(10.1063 -0.000529259 0)
(10.0001 -0.00133374 0)
(10.002 -0.00468088 0)
(10.0064 -0.0078423 0)
(10.0123 -0.0103532 0)
(10.0194 -0.0122317 0)
(10.0271 -0.0135709 0)
(10.0351 -0.0144883 0)
(10.0431 -0.0150938 0)
(10.051 -0.0154752 0)
(10.0587 -0.0156959 0)
(10.0661 -0.0157986 0)
(10.0732 -0.0158112 0)
(10.0801 -0.0157509 0)
(10.0866 -0.0156273 0)
(10.0929 -0.0154453 0)
(10.0988 -0.0152072 0)
(10.1045 -0.0149141 0)
(10.11 -0.0145669 0)
(10.0001 -0.00213309 0)
(10.0024 -0.00841353 0)
(10.0075 -0.0140376 0)
(10.0145 -0.018394 0)
(10.0224 -0.0215587 0)
(10.0309 -0.0237421 0)
(10.0394 -0.0251849 0)
(10.0479 -0.0260987 0)
(10.0561 -0.0266465 0)
(10.0641 -0.0269426 0)
(10.0717 -0.0270629 0)
(10.079 -0.0270581 0)
(10.086 -0.0269606 0)
(10.0927 -0.0267896 0)
(10.0991 -0.0265574 0)
(10.1052 -0.0262716 0)
(10.111 -0.0259373 0)
(10.1166 -0.0255582 0)
(10.0001 -0.00302261 0)
(10.0031 -0.0124172 0)
(10.0095 -0.0205083 0)
(10.0178 -0.0265341 0)
(10.027 -0.0307191 0)
(10.0365 -0.0334667 0)
(10.0459 -0.0351892 0)
(10.0549 -0.0362176 0)
(10.0636 -0.0367903 0)
(10.0719 -0.0370658 0)
(10.0797 -0.0371434 0)
(10.0872 -0.0370868 0)
(10.0944 -0.0369358 0)
(10.1012 -0.0367134 0)
(10.1077 -0.0364349 0)
(10.114 -0.0361105 0)
(10.1199 -0.0357463 0)
(10.1256 -0.0353469 0)
(10.0002 -0.00404787 0)
(10.0041 -0.0169151 0)
(10.0123 -0.0275132 0)
(10.0225 -0.0350004 0)
(10.0334 -0.0398919 0)
(10.0441 -0.042885 0)
(10.0544 -0.0446195 0)
(10.0641 -0.0455621 0)
(10.0732 -0.0460209 0)
(10.0818 -0.0461849 0)
(10.0899 -0.0461651 0)
(10.0976 -0.0460258 0)
(10.1049 -0.0458048 0)
(10.1118 -0.0455231 0)
(10.1184 -0.0451953 0)
(10.1247 -0.0448323 0)
(10.1308 -0.0444396 0)
(10.1366 -0.0440208 0)
(10.0002 -0.00523964 0)
(10.0055 -0.0221136 0)
(10.0162 -0.0352119 0)
(10.0288 -0.0438844 0)
(10.0417 -0.0491062 0)
(10.0538 -0.052002 0)
(10.0649 -0.053484 0)
(10.0752 -0.0541573 0)
(10.0847 -0.0543831 0)
(10.0935 -0.0543593 0)
(10.1017 -0.0541925 0)
(10.1095 -0.0539382 0)
(10.1168 -0.0536256 0)
(10.1238 -0.0532722 0)
(10.1305 -0.0528879 0)
(10.1368 -0.05248 0)
(10.1428 -0.0520535 0)
(10.1485 -0.0516107 0)
(10.0002 -0.00657128 0)
(10.0074 -0.0282366 0)
(10.0215 -0.0436705 0)
(10.0369 -0.0531765 0)
(10.0519 -0.0582844 0)
(10.0653 -0.060723 0)
(10.0772 -0.0616955 0)
(10.0878 -0.0619355 0)
(10.0975 -0.0618319 0)
(10.1063 -0.0615659 0)
(10.1145 -0.0612198 0)
(10.1222 -0.0608289 0)
(10.1294 -0.0604061 0)
(10.1363 -0.0599618 0)
(10.1428 -0.0595039 0)
(10.1489 -0.0590362 0)
(10.1547 -0.0585645 0)
(10.1603 -0.0580919 0)
(10.0001 -0.00784458 0)
(10.01 -0.0355285 0)
(10.0283 -0.0528473 0)
(10.0467 -0.0627519 0)
(10.0637 -0.0672396 0)
(10.0782 -0.068863 0)
(10.0906 -0.0690997 0)
(10.1013 -0.068784 0)
(10.1108 -0.0682908 0)
(10.1194 -0.0677522 0)
(10.1273 -0.0672073 0)
(10.1347 -0.0666647 0)
(10.1415 -0.0661168 0)
(10.148 -0.0655643 0)
(10.154 -0.0650143 0)
(10.1596 -0.0644682 0)
(10.165 -0.0639309 0)
(10.17 -0.0634087 0)
(9.99959 -0.00883828 0)
(10.0132 -0.0440419 0)
(10.0363 -0.0625794 0)
(10.058 -0.0724067 0)
(10.077 -0.0757714 0)
(10.0925 -0.0762777 0)
(10.105 -0.075604 0)
(10.1155 -0.0746356 0)
(10.1244 -0.0736923 0)
(10.1322 -0.0728323 0)
(10.1391 -0.0720424 0)
(10.1453 -0.0713038 0)
(10.151 -0.0705867 0)
(10.1561 -0.0698824 0)
(10.1607 -0.069198 0)
(10.1649 -0.0685322 0)
(10.1687 -0.0678905 0)
(10.1723 -0.0672822 0)
(9.99619 -0.00212738 0)
(10.0171 -0.0552981 0)
(10.0462 -0.0729341 0)
(10.073 -0.0819588 0)
(10.0947 -0.0837841 0)
(10.1106 -0.082827 0)
(10.1219 -0.0809667 0)
(10.1298 -0.0791215 0)
(10.1352 -0.0775387 0)
(10.1388 -0.076188 0)
(10.141 -0.0749974 0)
(10.142 -0.073915 0)
(10.1421 -0.0728851 0)
(10.1412 -0.0718891 0)
(10.1396 -0.0709315 0)
(10.1373 -0.0700059 0)
(10.1344 -0.0691222 0)
(10.1309 -0.0683 0)
(9.99374 -0.0631154 0)
(10.0233 -0.0517161 0)
(10.0722 -0.0849092 0)
(10.1064 -0.0939932 0)
(10.1245 -0.0925622 0)
(10.1278 -0.0884449 0)
(10.119 -0.0839315 0)
(10.1009 -0.079945 0)
(10.0761 -0.0765993 0)
(10.0464 -0.0737476 0)
(10.013 -0.0712346 0)
(9.97691 -0.0689512 0)
(9.93895 -0.0668093 0)
(9.89973 -0.0647723 0)
(9.8598 -0.0628307 0)
(9.81961 -0.0609736 0)
(9.7795 -0.0592147 0)
(9.73976 -0.0575902 0)
(9.85146 1.36809 0)
(10.1935 -0.419304 0)
(10.1388 -0.237283 0)
(10.0333 -0.146529 0)
(9.86842 -0.100275 0)
(9.67113 -0.0729087 0)
(9.4699 -0.0553662 0)
(9.28009 -0.0440894 0)
(9.10768 -0.0369428 0)
(8.95325 -0.0324029 0)
(8.81509 -0.0294305 0)
(8.69104 -0.0273573 0)
(8.57914 -0.0257851 0)
(8.47764 -0.0244895 0)
(8.38518 -0.0233483 0)
(8.3007 -0.0223106 0)
(8.22321 -0.0213643 0)
(8.15195 -0.0205603 0)
(0.00605141 -0.0127004 0)
(0.0177701 -0.0193875 0)
(0.0562094 -0.029422 7.65868e-20)
(0.093255 -0.0257729 0)
(0.120546 -0.0176214 0)
(0.13575 -0.00858852 0)
(0.139003 3.09813e-06 0)
(0.131449 0.00700427 0)
(0.115615 0.0119276 -4.43198e-20)
(0.0935391 0.0153809 0)
(0.0665905 0.0180147 0)
(0.0354922 0.0202438 0)
(0.00057895 0.0221278 0)
(-0.0381107 0.0236058 0)
(-0.0805811 0.0249642 0)
(-0.126692 0.0263088 0)
(-0.17628 0.0276307 4.49178e-20)
(-0.229061 0.0288756 0)
(-0.284741 0.0300124 -1.78763e-20)
(-0.342968 0.0309982 1.62254e-20)
(-0.403397 0.0317836 0)
(-0.465676 0.0323594 0)
(-0.529402 0.0326787 0)
(-0.59422 0.0327745 0)
(-0.659777 0.0327048 0)
(-0.725734 0.0325378 0)
(-0.791825 0.0323497 -1.02429e-20)
(-0.857795 0.0322122 0)
(-0.923467 0.0321552 9.42228e-21)
(-0.988698 0.0321594 0)
(-1.0534 0.0321438 -8.82461e-21)
(-1.11751 0.0319853 0)
(-1.18108 0.0315845 0)
(-1.2441 0.0312481 8.30057e-21)
(-1.30615 0.0306936 0)
(-1.36734 0.0294373 0)
(-1.42726 0.0279348 1.64004e-20)
(-1.48662 0.0256051 0)
(-1.545 0.0240359 0)
(-1.60093 0.0150196 1.63218e-20)
(-1.65096 0.0270609 0)
(-1.70466 0.0366166 7.94723e-21)
(-1.75812 0.0540688 0)
(-1.81429 0.0928551 -1.54749e-20)
(-1.88146 0.122464 0)
(-1.94094 0.00163391 0)
(-1.98697 -0.00364395 0)
(-2.04671 -0.00721172 0)
(-2.09827 -0.0513074 0)
(-2.14331 0.0929402 1.52665e-20)
(-2.22301 0.0916629 0)
(-2.26802 -0.00738752 0)
(-2.32078 0.00537809 0)
(-2.3838 0.00231863 0)
(-2.44456 0.0154676 0)
(-2.51236 0.0104763 0)
(-2.56646 0.0205954 1.87872e-20)
(-2.62969 0.0214701 0)
(-2.69143 0.0220018 -9.25092e-21)
(-2.75498 0.0223295 -1.83497e-20)
(-2.81942 0.0225251 0)
(-2.88466 0.0226752 1.80546e-20)
(-2.95064 0.0228096 0)
(-3.01736 0.0229452 -1.77799e-20)
(-3.08482 0.0230811 0)
(-3.15301 0.0232209 1.75245e-20)
(-3.22192 0.0233642 1.74038e-20)
(-3.29154 0.0235111 -1.72867e-20)
(-3.36185 0.0236555 0)
(-3.43279 0.0237951 0)
(-3.50431 0.0239233 1.69546e-20)
(-3.57635 0.0240263 0)
(-3.6488 0.0240566 0)
(-3.72144 0.0240696 -3.32907e-20)
(-3.79422 0.0241844 0)
(-3.86718 0.0241847 0)
(-3.94015 0.0240622 0)
(-4.01248 0.0239901 1.62406e-20)
(-4.08464 0.0238438 0)
(-4.15604 0.023582 -3.20649e-20)
(-4.2265 0.0233378 1.59233e-20)
(-4.29585 0.0229712 0)
(-4.36375 0.0226231 -1.56968e-20)
(-4.42998 0.0221373 -3.11549e-20)
(-4.49415 0.0216616 -1.54498e-20)
(-4.55566 0.0210987 0)
(-4.61478 0.0203974 0)
(-4.67082 0.0195943 0)
(-4.72208 0.0184916 0)
(-4.76881 0.0168801 0)
(-4.81222 0.014806 -2.91008e-20)
(-4.85062 0.0125715 0)
(-4.88296 0.0102052 0)
(-4.90873 0.00777284 -1.39774e-20)
(-4.92652 0.00530052 0)
(-4.93556 0.00296021 0)
(-4.93628 0.001088 2.65258e-20)
(-4.92966 -0.000756624 0)
(-4.91563 -0.00272575 0)
(-4.89398 -0.00478044 0)
(-4.86415 -0.00696552 0)
(-4.82562 -0.00924344 0)
(-4.77793 -0.0115691 0)
(-4.72101 -0.0139997 0)
(-4.65462 -0.016511 1.96547e-20)
(-4.57794 -0.0191298 0)
(-4.49126 -0.0217356 0)
(-4.39393 -0.0244423 0)
(-4.28627 -0.0272472 1.35021e-20)
(-4.16782 -0.0300336 -1.15364e-20)
(-4.0389 -0.0328745 0)
(-3.89965 -0.0357932 6.94773e-21)
(-3.75035 -0.0386689 0)
(-3.59128 -0.0415906 0)
(-3.42294 -0.0445225 -2.04263e-21)
(-3.24591 -0.0475097 0)
(-3.06094 -0.0504091 0)
(-2.86883 -0.0530968 0)
(-2.67056 -0.0558372 0)
(-2.46692 -0.0586563 0)
(-2.25928 -0.0605689 0)
(-2.04854 -0.0611977 0)
(-1.83515 -0.0607696 4.73197e-20)
(-1.61746 -0.0586185 0)
(-1.39508 -0.0520013 -6.57533e-20)
(-1.15914 -0.0327615 0)
(-0.981913 -0.00685739 0)
(-0.779378 -0.0190638 1.23724e-19)
(-0.584176 -0.00722465 0)
(-0.401182 0.00459737 0)
(-0.221102 0.00530073 0)
(-0.0470606 0.0123311 -4.6489e-19)
(0.129228 0.0152235 0)
(0.306508 0.0143751 0)
(0.487977 0.00246828 0)
(0.658204 -0.00169056 2.35788e-19)
(0.820754 -0.00899122 0)
(1.01678 0.104916 -8.94944e-20)
(1.13368 0.0529786 4.68197e-20)
(1.24798 -0.175383 0)
(1.38187 -0.0975346 0)
(1.4931 -0.0601518 -1.76898e-19)
(1.59655 0.0903703 0)
(1.69316 0.0062429 0)
(1.7885 -0.0143734 0)
(1.87237 -0.0247626 -1.03486e-19)
(1.9506 -0.0178208 0)
(2.01204 -0.0372038 0)
(2.07381 -0.0211245 0)
(2.12773 -0.0108587 0)
(2.17566 -0.011044 0)
(2.21881 -0.0115346 1.02562e-19)
(2.256 -0.012222 0)
(2.28689 -0.0117705 1.0239e-19)
(2.31189 -0.0106422 0)
(2.33168 -0.009307 1.03169e-19)
(2.34703 -0.00801234 0)
(2.35853 -0.0068408 0)
(2.3667 -0.00579315 0)
(2.37165 -0.00482001 0)
(2.37382 -0.00395445 0)
(2.37365 -0.0032159 0)
(2.37152 -0.00258907 0)
(2.36792 -0.0020479 0)
(2.36305 -0.00157148 -2.17208e-19)
(2.35723 -0.00115261 0)
(2.35057 -0.000818882 0)
(2.34348 -0.000521798 2.20811e-19)
(2.33594 -0.000280621 0)
(2.32822 -7.9737e-05 0)
(2.32039 9.24394e-05 2.24134e-19)
(2.31247 0.000248777 0)
(2.30441 0.000407138 -2.2627e-19)
(2.296 0.000596238 0)
(2.28683 0.000872743 0)
(2.27605 0.00129195 0)
(2.2622 0.00205114 0)
(2.24207 0.00357905 0)
(2.20738 0.00738305 0)
(2.13417 0.0208183 0)
(0.00804313 -0.0813237 -3.45412e-19)
(0.0401891 -0.0852132 -2.78788e-20)
(0.056993 -0.073403 1.54464e-20)
(0.0636406 -0.052025 0)
(0.0628674 -0.0276519 0)
(0.0558763 -0.00342638 9.56963e-21)
(0.0430531 0.0189523 -1.82319e-20)
(0.0245347 0.038637 0)
(0.000349108 0.0553243 2.60409e-20)
(-0.029398 0.0692569 -2.15995e-23)
(-0.0644303 0.0810375 0)
(-0.104338 0.0913095 1.53724e-20)
(-0.148643 0.100536 0)
(-0.196899 0.108974 0)
(-0.248658 0.116682 0)
(-0.303482 0.12363 0)
(-0.360986 0.129756 -2.38846e-20)
(-0.420814 0.135003 0)
(-0.482611 0.13935 0)
(-0.546048 0.142818 -2.06254e-20)
(-0.610807 0.145416 0)
(-0.676606 0.147186 -1.89423e-20)
(-0.74319 0.148185 -9.14371e-21)
(-0.810341 0.148481 -1.76065e-20)
(-0.877868 0.14816 1.70447e-20)
(-0.945617 0.147321 8.24856e-21)
(-1.01347 0.146074 2.41739e-20)
(-1.08131 0.144526 0)
(-1.14903 0.142761 7.69477e-21)
(-1.21655 0.140849 -7.5326e-21)
(-1.28384 0.138828 -1.47787e-20)
(-1.35089 0.136726 7.26942e-21)
(-1.41771 0.134578 -7.18317e-21)
(-1.48441 0.132439 0)
(-1.55112 0.130329 -7.14351e-21)
(-1.61802 0.128429 0)
(-1.68503 0.12698 0)
(-1.75194 0.125814 7.36323e-21)
(-1.81837 0.124088 0)
(-1.88497 0.12093 7.37052e-21)
(-1.9514 0.11932 0)
(-2.0158 0.117635 0)
(-2.07972 0.116396 -6.88018e-21)
(-2.14221 0.117262 0)
(-2.20212 0.117151 0)
(-2.26541 0.112576 2.31804e-20)
(-2.33185 0.11244 0)
(-2.39542 0.112646 0)
(-2.46066 0.109379 7.30634e-21)
(-2.5262 0.113925 -1.43295e-20)
(-2.58219 0.113201 3.03193e-23)
(-2.64821 0.109145 0)
(-2.71359 0.11108 -2.88351e-20)
(-2.77664 0.110805 -1.43832e-20)
(-2.84013 0.111024 0)
(-2.90225 0.108858 -1.42324e-20)
(-2.96739 0.108112 1.41987e-20)
(-3.03163 0.108209 0)
(-3.09629 0.108211 1.4207e-20)
(-3.16125 0.108345 -4.25287e-20)
(-3.22651 0.108445 2.8335e-20)
(-3.29213 0.10849 0)
(-3.35808 0.108494 2.84731e-20)
(-3.42435 0.108452 -4.27499e-20)
(-3.49088 0.108343 -1.43177e-20)
(-3.55762 0.108166 2.85631e-20)
(-3.62452 0.107906 1.43749e-20)
(-3.69148 0.107545 2.86855e-20)
(-3.75842 0.107067 -2.87493e-20)
(-3.82526 0.106456 0)
(-3.89186 0.105693 1.45005e-20)
(-3.9581 0.104766 2.89445e-20)
(-4.02389 0.103652 0)
(-4.08908 0.102386 0)
(-4.15345 0.100861 0)
(-4.21687 0.0991039 2.91685e-20)
(-4.2792 0.0971202 0)
(-4.34018 0.0948933 -2.93435e-20)
(-4.39965 0.0923516 -1.46793e-20)
(-4.45741 0.089576 0)
(-4.51322 0.0864534 0)
(-4.56686 0.0830741 0)
(-4.61806 0.0793217 -1.46306e-20)
(-4.66658 0.0752904 4.3703e-20)
(-4.71212 0.0708845 0)
(-4.75435 0.0661461 -2.89591e-20)
(-4.79309 0.0610329 0)
(-4.82808 0.0555609 0)
(-4.85831 0.049761 5.67235e-20)
(-4.88359 0.0434254 0)
(-4.90487 0.0366089 -2.78355e-20)
(-4.92156 0.0294086 2.75544e-20)
(-4.93308 0.0218935 0)
(-4.93924 0.0140682 0)
(-4.93984 0.00608008 0)
(-4.93428 -0.00213088 0)
(-4.92193 -0.0106154 -2.51485e-20)
(-4.90217 -0.0192332 0)
(-4.8749 -0.028123 4.75033e-20)
(-4.83974 -0.0374377 0)
(-4.7961 -0.0470911 0)
(-4.74374 -0.0570077 2.11227e-20)
(-4.68231 -0.0671156 0)
(-4.61149 -0.0773984 0)
(-4.53097 -0.0878129 0)
(-4.44053 -0.0982917 -4.90115e-20)
(-4.33996 -0.108802 0)
(-4.22907 -0.119259 1.3255e-20)
(-4.1078 -0.129609 2.36425e-20)
(-3.97614 -0.139756 9.85446e-21)
(-3.83414 -0.149617 -7.9859e-21)
(-3.68202 -0.159103 6.55357e-21)
(-3.52001 -0.168091 3.88786e-21)
(-3.34848 -0.176495 1.64631e-21)
(-3.16792 -0.184186 7.56693e-22)
(-2.97892 -0.191071 0)
(-2.7822 -0.197004 0)
(-2.5785 -0.201953 0)
(-2.36898 -0.205837 -2.23121e-20)
(-2.15457 -0.208486 0)
(-1.93657 -0.209869 0)
(-1.71609 -0.210095 2.11004e-20)
(-1.49492 -0.209554 4.76657e-20)
(-1.2748 -0.209064 0)
(-1.05896 -0.209078 0)
(-0.848216 -0.203734 0)
(-0.621305 -0.188067 0)
(-0.411562 -0.188843 -1.07295e-19)
(-0.207109 -0.183516 0)
(-0.00502189 -0.175468 0)
(0.193829 -0.16717 0)
(0.386005 -0.162236 0)
(0.569947 -0.157478 0)
(0.744841 -0.15185 0)
(0.908377 -0.145444 -5.81086e-20)
(1.06402 -0.137257 1.76068e-22)
(1.21119 -0.133631 0)
(1.33667 -0.123364 0)
(1.47766 -0.0955221 -7.509e-22)
(1.59194 -0.104908 8.64142e-20)
(1.70442 -0.0918564 -1.02731e-19)
(1.81042 -0.0869871 -1.1034e-19)
(1.90794 -0.0752403 -1.00106e-19)
(1.99493 -0.0707836 0)
(2.07181 -0.0647875 7.93604e-20)
(2.14506 -0.0591607 0)
(2.2112 -0.0502079 -8.16505e-20)
(2.27353 -0.0475656 0)
(2.3292 -0.042368 1.77207e-19)
(2.37833 -0.0363643 -8.72306e-20)
(2.42035 -0.0323874 0)
(2.45736 -0.0283601 0)
(2.49023 -0.0242132 8.41607e-20)
(2.51909 -0.0201796 8.49136e-20)
(2.54403 -0.0165037 8.55346e-20)
(2.56517 -0.0132685 8.62185e-20)
(2.5828 -0.0104616 1.7378e-19)
(2.59721 -0.00802904 0)
(2.60873 -0.00591224 0)
(2.61774 -0.00404315 1.77655e-19)
(2.62456 -0.00243298 0)
(2.62941 -0.00106639 8.98999e-20)
(2.63257 7.36041e-05 1.80712e-19)
(2.63423 0.00100263 0)
(2.63469 0.00173234 0)
(2.63417 0.00229847 9.16483e-20)
(2.63292 0.00271065 9.1974e-20)
(2.63112 0.00297876 0)
(2.62897 0.00314784 -1.85179e-19)
(2.62661 0.00322672 0)
(2.62414 0.00325522 1.86235e-19)
(2.62163 0.00327363 0)
(2.61906 0.00334455 -9.35895e-20)
(2.61627 0.00355289 1.87663e-19)
(2.61302 0.00403544 0)
(2.6087 0.0050426 0)
(2.60227 0.00704482 -1.89564e-19)
(2.59168 0.0112333 0)
(2.57294 0.0211277 0)
(2.54049 0.0502485 -1.96024e-19)
(0.00279424 -0.119811 2.88781e-19)
(0.0150573 -0.113962 1.56564e-19)
(0.0136174 -0.0790236 4.25255e-20)
(0.00539881 -0.0421797 -2.32485e-23)
(-0.0081265 -0.00594565 2.71122e-20)
(-0.0261702 0.0286033 -2.42625e-20)
(-0.0484183 0.0607181 4.50328e-20)
(-0.0748183 0.0899105 -2.13392e-20)
(-0.105398 0.115968 0)
(-0.140182 0.138979 -1.96478e-20)
(-0.17908 0.159249 0)
(-0.221857 0.177166 0)
(-0.268184 0.193074 -1.74224e-20)
(-0.317659 0.207201 0)
(-0.369884 0.219671 -3.20158e-20)
(-0.424464 0.230528 0)
(-0.48106 0.2398 -1.47098e-20)
(-0.539317 0.247495 1.41121e-20)
(-0.598948 0.253665 0)
(-0.659691 0.258374 -1.67125e-23)
(-0.72133 0.261723 0)
(-0.783667 0.263833 1.21482e-20)
(-0.846534 0.264828 0)
(-0.909815 0.264855 -3.43113e-20)
(-0.973378 0.264049 1.11432e-20)
(-1.03715 0.262562 -1.08436e-20)
(-1.10105 0.260515 0)
(-1.16498 0.258028 -1.03952e-20)
(-1.22886 0.255195 1.01957e-20)
(-1.2926 0.252087 1.29336e-23)
(-1.35614 0.248763 9.86391e-21)
(-1.41941 0.245298 -9.72275e-21)
(-1.48236 0.241795 -1.9218e-20)
(-1.54497 0.238372 0)
(-1.60723 0.235147 -9.49271e-21)
(-1.66911 0.232148 1.89198e-20)
(-1.73047 0.229226 1.89107e-20)
(-1.79121 0.226065 1.89335e-20)
(-1.85133 0.222354 1.86814e-20)
(-1.91104 0.218169 1.83995e-20)
(-1.97037 0.214192 1.80607e-20)
(-2.02916 0.210874 1.77601e-20)
(-2.08741 0.208516 0)
(-2.14489 0.206836 1.75733e-20)
(-2.20194 0.204778 0)
(-2.25949 0.202224 6.51175e-23)
(-2.3176 0.200118 0)
(-2.37559 0.198608 0)
(-2.43344 0.19754 0)
(-2.49067 0.197286 0)
(-2.54708 0.195983 0)
(-2.60452 0.194026 0)
(-2.66254 0.192869 1.73497e-20)
(-2.72063 0.19205 -1.73462e-20)
(-2.77885 0.191567 1.73412e-20)
(-2.83706 0.191042 3.47335e-20)
(-2.89571 0.19064 0)
(-2.9544 0.190323 -1.73802e-20)
(-3.01336 0.189989 -1.73991e-20)
(-3.07262 0.189704 0)
(-3.13215 0.189424 0)
(-3.19195 0.189112 0)
(-3.252 0.188742 3.50436e-20)
(-3.3123 0.188279 -1.76006e-20)
(-3.37279 0.18771 -1.7651e-20)
(-3.43342 0.187001 -1.7652e-20)
(-3.49415 0.186131 -1.7768e-20)
(-3.55491 0.185074 0)
(-3.61562 0.183801 -1.78948e-20)
(-3.67619 0.182291 -1.79585e-20)
(-3.73654 0.18051 -1.79721e-20)
(-3.79656 0.178444 -1.80886e-20)
(-3.85613 0.17606 0)
(-3.91513 0.173339 0)
(-3.97341 0.170244 0)
(-4.03084 0.166759 5.4894e-20)
(-4.08723 0.162868 3.66707e-20)
(-4.14245 0.158535 0)
(-4.19631 0.15374 0)
(-4.2486 0.148472 0)
(-4.29914 0.142702 0)
(-4.34768 0.136419 0)
(-4.39403 0.1296 1.85095e-20)
(-4.43792 0.12224 -3.6937e-20)
(-4.47909 0.114322 1.84547e-20)
(-4.51725 0.105826 -1.84005e-20)
(-4.55215 0.0967286 0)
(-4.58355 0.0870417 0)
(-4.61074 0.0768004 0)
(-4.63339 0.0658892 3.59628e-20)
(-4.65203 0.0542319 0)
(-4.66614 0.0419122 3.53122e-20)
(-4.67513 0.0290124 0)
(-4.67865 0.0155645 4.59605e-23)
(-4.67627 0.00159684 0)
(-4.66749 -0.0129109 3.31186e-20)
(-4.65189 -0.0279566 -3.23449e-20)
(-4.62909 -0.0434265 3.15851e-20)
(-4.59895 -0.0592784 0)
(-4.56109 -0.0758438 -5.91193e-20)
(-4.51499 -0.0929866 2.84904e-20)
(-4.46033 -0.110579 1.58151e-22)
(-4.39676 -0.12853 0)
(-4.32401 -0.14677 2.42647e-20)
(-4.24179 -0.165223 0)
(-4.14983 -0.183799 0)
(-4.04797 -0.202396 0)
(-3.93604 -0.220895 0)
(-3.81395 -0.239173 1.51316e-20)
(-3.68171 -0.257082 0)
(-3.53941 -0.274457 1.09278e-20)
(-3.3872 -0.291133 0)
(-3.22534 -0.306926 0)
(-3.05424 -0.321643 6.42922e-21)
(-2.87438 -0.335079 -7.34715e-22)
(-2.68635 -0.347032 0)
(-2.49085 -0.357305 0)
(-2.28874 -0.365723 -2.74405e-20)
(-2.08112 -0.372135 2.46959e-20)
(-1.86883 -0.3764 0)
(-1.65315 -0.378394 -3.87157e-20)
(-1.43506 -0.378151 6.94844e-20)
(-1.21603 -0.375947 -8.02543e-20)
(-0.997218 -0.372284 3.08945e-20)
(-0.780464 -0.367831 3.4547e-20)
(-0.566076 -0.361132 7.58492e-20)
(-0.348467 -0.347211 0)
(-0.13728 -0.337512 -1.35091e-19)
(0.0666356 -0.328236 0)
(0.266016 -0.317179 0)
(0.460176 -0.304649 1.03509e-19)
(0.645701 -0.292637 -1.06612e-19)
(0.821237 -0.280321 0)
(0.986445 -0.266753 1.04382e-19)
(1.14118 -0.252115 0)
(1.28705 -0.237525 0)
(1.42319 -0.224424 1.02154e-19)
(1.54759 -0.205369 0)
(1.67336 -0.180999 -9.55886e-23)
(1.78654 -0.174852 0)
(1.8891 -0.161486 1.02332e-19)
(1.98687 -0.147775 -1.07248e-19)
(2.07805 -0.131949 0)
(2.16125 -0.120137 0)
(2.23503 -0.110612 -1.03053e-19)
(2.30188 -0.100677 1.04602e-19)
(2.36268 -0.0889482 0)
(2.41841 -0.0807061 0)
(2.46665 -0.072178 2.19632e-19)
(2.51037 -0.0621996 1.10771e-19)
(2.54844 -0.0542761 0)
(2.58127 -0.047463 1.09915e-19)
(2.60998 -0.0410051 -1.25332e-22)
(2.63517 -0.0348292 1.10436e-19)
(2.65713 -0.0290905 1.11125e-19)
(2.67599 -0.0239076 -6.0682e-23)
(2.69196 -0.0193036 0)
(2.70524 -0.0152524 0)
(2.71612 -0.0117023 -1.14084e-19)
(2.72484 -0.00860313 0)
(2.73171 -0.00592309 0)
(2.73697 -0.00364118 2.31738e-19)
(2.74087 -0.00173305 -2.32531e-19)
(2.74364 -0.000171099 0)
(2.74549 0.00105709 0)
(2.74666 0.00199669 -1.17491e-19)
(2.74733 0.0026701 0)
(2.7477 0.00310555 0)
(2.74791 0.0033584 1.18273e-19)
(2.74809 0.00346335 0)
(2.74833 0.00348099 0)
(2.74867 0.00348444 3.5688e-19)
(2.74905 0.0035739 -1.19135e-19)
(2.74938 0.0038941 -2.38645e-19)
(2.74935 0.00467348 1.14991e-23)
(2.74849 0.0063058 0)
(2.7459 0.00952974 0)
(2.74014 0.0160173 0)
(2.72907 0.0299294 0)
(2.71297 0.0625359 0)
(-0.0032545 -0.115696 2.61471e-19)
(-0.00972546 -0.100404 0)
(-0.0261899 -0.0532186 0)
(-0.0464348 -0.00722758 -4.94314e-20)
(-0.0697311 0.0367417 0)
(-0.0959063 0.0783373 0)
(-0.124936 0.117235 1.70579e-20)
(-0.156864 0.153148 -3.21611e-20)
(-0.191754 0.185896 0)
(-0.229624 0.215438 0)
(-0.270431 0.241876 0)
(-0.314016 0.265387 2.71958e-20)
(-0.360151 0.286173 -1.30765e-20)
(-0.408557 0.304413 0)
(-0.458926 0.320245 -2.41261e-20)
(-0.51098 0.333778 0)
(-0.56446 0.345094 -2.22781e-20)
(-0.619078 0.354271 -4.28992e-20)
(-0.674606 0.361445 2.06738e-20)
(-0.730888 0.366769 0)
(-0.787773 0.370395 0)
(-0.845108 0.372496 -1.87183e-20)
(-0.902778 0.373262 0)
(-0.960683 0.372866 0)
(-1.01873 0.371488 -1.72644e-20)
(-1.07685 0.369297 0)
(-1.13496 0.366419 3.30471e-20)
(-1.19298 0.362977 0)
(-1.25085 0.359045 0)
(-1.30849 0.354692 3.53091e-24)
(-1.36583 0.349993 0)
(-1.42283 0.34504 -1.51646e-20)
(-1.47942 0.339954 0)
(-1.53557 0.334867 -1.4794e-20)
(-1.59119 0.329897 0)
(-1.64621 0.325074 1.44918e-20)
(-1.70058 0.320334 0)
(-1.7543 0.315538 0)
(-1.80752 0.310567 0)
(-1.86041 0.305474 0)
(-1.91316 0.30053 1.37695e-20)
(-1.96575 0.296038 -1.35962e-20)
(-2.0181 0.292133 0)
(-2.07012 0.288727 1.34031e-20)
(-2.12189 0.285588 1.33785e-20)
(-2.17355 0.282646 2.67907e-20)
(-2.22522 0.280005 1.33656e-20)
(-2.27684 0.277746 1.33266e-20)
(-2.32838 0.275816 0)
(-2.37984 0.274102 0)
(-2.4313 0.272392 -1.3121e-20)
(-2.48298 0.270707 0)
(-2.53496 0.269228 -1.31204e-20)
(-2.58717 0.26799 0)
(-2.63962 0.266976 3.93224e-20)
(-2.69228 0.266105 1.3136e-20)
(-2.74521 0.265359 0)
(-2.79841 0.264722 0)
(-2.85188 0.264143 -2.62839e-20)
(-2.90561 0.26359 0)
(-2.95963 0.263025 2.63908e-20)
(-3.01392 0.262409 0)
(-3.06849 0.261706 0)
(-3.12328 0.260884 -2.66899e-20)
(-3.17831 0.259899 0)
(-3.23349 0.258724 2.68819e-20)
(-3.28881 0.257319 0)
(-3.34421 0.255648 2.71047e-20)
(-3.3996 0.253681 0)
(-3.45493 0.251377 0)
(-3.51009 0.248707 0)
(-3.56502 0.245629 -2.75817e-20)
(-3.6196 0.242112 0)
(-3.6737 0.238122 2.78217e-20)
(-3.72721 0.233623 0)
(-3.78 0.228583 -2.80545e-20)
(-3.83189 0.222973 -2.8162e-20)
(-3.88276 0.216757 0)
(-3.9324 0.20991 5.66932e-20)
(-3.98067 0.202396 -2.84182e-20)
(-4.02733 0.194193 0)
(-4.07221 0.18527 2.85474e-20)
(-4.11506 0.175607 0)