/*--------------------------------*- C++ -*----------------------------------*\
  =========                 |
  \\      /  F ield         | OpenFOAM: The Open Source CFD Toolbox
   \\    /   O peration     | Website:  https://openfoam.org
    \\  /    A nd           | Version:  7
     \\/     M anipulation  |
\*---------------------------------------------------------------------------*/
FoamFile
{
    version     2.0;
    format      ascii;
    class       volScalarField;
    location    "700";
    object      epsilon;
}
// * * * * * * * * * * * * * * * * * * * * * * * * * * * * * * * * * * * * * //

dimensions      [0 2 -3 0 0 0 0];

internalField   nonuniform List<scalar> 
48900
(
215.661
970.797
838.529
844.02
995.289
1222.89
1416.73
1547.35
1626.16
1673.05
1702.95
1724.09
1740.67
1754.75
1766.98
1777.55
1786.2
1790.62
20.5283
211.359
289.394
410.56
613.884
874.697
1130.87
1344.52
1509.15
1632.93
1726.02
1797.13
1851.46
1892.94
1924.1
1946.68
1961.45
1967.04
14.6969
38.5882
60.1445
79.4649
99.7945
124.235
153.202
185.432
219.429
254.148
289.023
323.824
358.414
392.628
426.199
458.726
489.634
517.686
14.6861
18.7059
25.1875
31.4881
37.4175
43.2155
49.1214
55.2075
61.4277
67.7024
73.9794
80.2357
86.4751
92.7151
98.9709
105.242
111.494
117.52
14.7834
15.3087
17.2215
19.5948
22.0013
24.3277
26.5717
28.752
30.8759
32.9399
34.9365
36.86
38.7078
40.4802
42.1785
43.8018
45.3447
46.7714
14.8071
14.7474
15.0871
15.8719
16.8387
17.8609
18.8808
19.8769
20.8412
21.7694
22.6582
23.5052
24.3089
25.0683
25.783
26.4517
27.0714
27.6324
14.8118
14.6514
14.5999
14.7068
14.9881
15.3642
15.7891
16.2339
16.6824
17.125
17.5555
17.9703
18.3667
18.743
19.0979
19.43
19.7371
20.0138
14.8115
14.6426
14.4978
14.4076
14.3901
14.438
14.5444
14.6854
14.8495
15.0263
15.2093
15.3936
15.5756
15.753
15.9236
16.0861
16.2382
16.3763
14.8111
14.6409
14.4824
14.3418
14.2274
14.1453
14.0966
14.0766
14.0811
14.1034
14.1397
14.1859
14.2383
14.2948
14.3534
14.4124
14.47
14.5238
14.8108
14.6393
14.4787
14.329
14.1914
14.0683
13.9615
13.8716
13.7983
13.7396
13.694
13.6597
13.6343
13.6164
13.6044
13.597
13.5931
13.5921
14.8107
14.6382
14.4765
14.3248
14.1827
14.0498
13.9265
13.8131
13.7099
13.6167
13.533
13.4583
13.3917
13.3324
13.2797
13.2325
13.1902
13.1514
14.8106
14.6375
14.475
14.3224
14.1789
14.0439
13.9168
13.7974
13.6856
13.5811
13.4837
13.3933
13.3094
13.2317
13.1597
13.0929
13.031
12.9731
14.8105
14.637
14.474
14.3207
14.1765
14.0407
13.9125
13.7916
13.6774
13.5698
13.4683
13.3727
13.2827
13.198
13.1184
13.0435
12.973
12.9065
14.8104
14.6366
14.4731
14.3193
14.1745
14.038
13.9092
13.7876
13.6725
13.5637
13.4607
13.3633
13.271
13.1836
13.1008
13.0224
12.948
12.8774
14.8104
14.6363
14.4725
14.3182
14.1729
14.0359
13.9066
13.7844
13.6688
13.5594
13.4558
13.3575
13.2644
13.176
13.0921
13.0124
12.9367
12.8646
14.8104
14.6361
14.4719
14.3174
14.1717
14.0342
13.9045
13.7818
13.6658
13.556
13.4519
13.3532
13.2596
13.1707
13.0862
13.006
12.9296
12.857
14.8103
14.6359
14.4716
14.3167
14.1708
14.033
13.9029
13.7799
13.6635
13.5533
13.4489
13.3498
13.2558
13.1666
13.0817
13.0011
12.9244
12.8514
14.8103
14.6358
14.4714
14.3164
14.1702
14.0322
13.9019
13.7786
13.662
13.5515
13.4468
13.3475
13.2532
13.1636
13.0785
12.9976
12.9207
12.8474
14.8103
14.6358
14.4713
14.3163
14.17
14.0319
13.9015
13.7781
13.6613
13.5506
13.4458
13.3462
13.2518
13.1621
13.0768
12.9957
12.9186
12.8452
14.8104
14.6359
14.4715
14.3165
14.1703
14.0323
13.9019
13.7785
13.6617
13.5511
13.4462
13.3467
13.2522
13.1624
13.0771
12.996
12.9189
12.8455
14.8104
14.636
14.4718
14.317
14.171
14.0332
13.9029
13.7798
13.6631
13.5526
13.4478
13.3484
13.254
13.1644
13.0792
12.9982
12.9212
12.8479
14.8104
14.6363
14.4723
14.3178
14.1722
14.0347
13.9048
13.7819
13.6656
13.5555
13.4511
13.3522
13.2584
13.1694
13.0851
13.0051
12.9292
12.8572
14.8105
14.6367
14.4731
14.3192
14.1741
14.0373
13.9083
13.7866
13.6722
13.5646
13.4636
13.369
13.2804
13.1977
13.1203
13.048
12.9805
12.9175
14.8106
14.6373
14.4745
14.3215
14.1786
14.0464
13.9257
13.8169
13.7199
13.6342
13.5589
13.4932
13.436
13.3863
13.3431
13.3058
13.2735
13.2458
14.8103
14.6381
14.4776
14.3361
14.2214
14.1401
14.0886
14.0645
14.0637
14.0778
14.1059
14.1435
14.1881
14.2378
14.291
14.3467
14.4041
14.4627
14.8047
14.6392
14.5318
14.5362
14.6446
14.84
15.0805
15.3465
15.6241
15.9059
16.1875
16.4666
16.7416
17.0114
17.275
17.5321
17.7822
18.026
14.7564
14.7807
15.235
16.0948
17.0828
18.084
19.0594
20.0038
20.9236
21.8259
22.7151
23.5923
24.4565
25.3055
26.1373
26.95
27.7428
28.5162
14.6505
16.6896
20.4518
24.0956
27.3627
30.3886
33.3477
36.3733
39.5338
42.8414
46.274
49.7937
53.3609
56.9416
60.5096
64.0477
67.5448
70.9972
25.2543
36.7585
52.7204
64.3276
75.4602
88.935
105.761
126.165
149.531
174.835
201.031
227.262
252.928
277.666
301.295
323.754
345.052
365.233
660.188
256.983
290.803
361.72
482.901
657.241
859.906
1059.53
1233.43
1372.73
1478.54
1556.45
1612.87
1653.4
1682.37
1702.93
1717.34
1727.23
0.555262
0.333542
0.719751
1.05932
1.34934
1.60614
1.84829
2.098
2.35773
2.63547
2.93708
3.26477
3.62093
4.00547
4.41999
4.86704
5.34829
5.86782
6.42882
7.03696
7.69716
8.41362
9.19337
10.0413
10.9611
11.9594
13.0399
14.2063
15.4624
16.8116
18.2575
19.8
21.4398
23.1782
25.0192
26.9576
28.9954
31.1388
33.3788
35.7244
38.1662
40.7151
43.3648
46.1093
48.961
51.9119
54.9534
58.1105
61.3466
64.698
68.1224
71.6605
75.2652
78.9801
82.783
86.6387
90.5985
94.6341
98.7244
102.872
107.09
111.351
115.639
119.928
124.183
128.35
132.356
136.1
139.452
142.242
144.209
145.053
146.588
148.282
149.808
151.967
155.069
159.225
164.558
167.989
167.636
164.83
163.021
163.754
166.966
169.28
756.709
172.88
776.658
799.425
781.404
749.473
782.714
849.133
842.435
808.652
801.322
825.893
843.406
838.986
802.083
179.03
777.678
184.378
802.331
813.801
827.457
841.207
854.621
867.656
880.277
892.395
903.966
915.05
925.587
935.58
944.942
953.737
961.907
969.457
976.35
982.559
988.051
992.865
996.928
1000.27
1002.74
1004.27
1005
1004.62
1000.71
976.666
210.251
197.338
199.567
208.942
204.732
198.273
205.367
202.997
194.904
196.377
195.599
191.005
180.343
183.796
182.793
180.104
170.051
160.887
154.24
156.993
160.987
148.069
142.863
141.819
136.779
130.315
127.493
124.969
122.454
120.227
118.307
116.562
117.087
118.846
120.685
206.171
216.256
210.259
208.146
208.167
207.783
210.266
214.189
209.463
200.883
237.944
248.229
1321.78
1.85468
0.510659
0.527179
0.599217
0.691474
0.798326
0.919663
1.05649
1.20933
1.37878
1.56557
1.77043
1.99415
2.23767
2.50211
2.78885
3.09946
3.43567
3.79931
4.19228
4.61636
5.07311
5.56407
6.09061
6.65381
7.25522
7.89589
8.57659
9.29831
10.0617
10.8676
11.7168
12.6097
13.5473
14.5302
15.5589
16.6348
17.7584
18.9307
20.1521
21.4236
22.7455
24.1187
25.5432
27.02
28.5489
30.1303
31.7646
33.451
35.1899
36.9802
38.8223
40.7143
42.6565
44.6469
46.6843
48.7676
50.8943
53.0616
55.2665
57.5041
59.7699
62.0535
64.3433
66.6269
68.8845
71.0955
73.2383
75.2965
77.2693
79.1833
81.1321
83.1932
85.3862
87.7546
90.4441
93.5166
96.7478
99.9185
102.947
105.866
108.901
113.05
121.067
133.764
152.294
168.192
168.996
178.739
176.631
173.524
181.67
190.368
204.238
210.096
203.637
204.088
207.948
213.431
210.726
206.293
200.862
217.54
219.228
231.142
234.995
238.983
242.893
246.726
250.457
254.092
257.623
261.034
264.33
267.507
270.55
273.463
276.235
278.856
281.33
283.65
285.804
287.794
289.616
291.258
292.716
293.995
295.111
296.048
296.366
293.828
281.118
248.058
245.386
244.76
243.653
243.43
241.214
238.867
239.475
238.686
236.05
234.237
229.146
228.497
227.989
225.868
222.355
218.372
215.993
215.583
214.407
210.998
206.812
204.564
203.555
199.701
196.664
194.046
191.644
189.249
186.912
184.702
182.851
180.447
178.312
177.377
178.883
178.034
176.262
173.445
170.428
168.522
167.137
165.288
163.33
166.425
174.548
182.883
248.469
3.43496
0.92161
0.812624
0.833623
0.899084
0.991858
1.10695
1.2429
1.39921
1.57568
1.7721
1.98824
2.22403
2.47953
2.7551
3.0513
3.36897
3.70904
4.07257
4.46051
4.87387
5.31368
5.7808
6.27617
6.80056
7.35548
7.94137
8.55878
9.20884
9.8919
10.6081
11.3567
12.1391
12.957
13.8111
14.7018
15.6301
16.5968
17.6027
18.6482
19.7339
20.8603
22.0282
23.238
24.4901
25.7847
27.1221
28.5024
29.9259
31.3926
32.9022
34.4546
36.0498
37.6872
39.3668
41.088
42.85
44.6524
46.4948
48.3756
50.2938
52.2476
54.2348
56.254
58.3027
60.3807
62.4898
64.6351
66.8272
69.0812
71.4142
73.8361
76.3416
78.9203
81.5795
84.3488
87.2531
90.3106
93.5513
96.9702
100.464
103.94
107.576
111.758
116.6
121.872
126.089
130.046
133.734
136.563
139.615
143.388
147.594
152.137
156.037
159.218
162.678
166.188
169.67
172.042
174.397
177.733
182.04
185.758
189.697
193.004
196.232
199.391
202.479
205.491
208.422
211.268
214.024
216.686
219.248
221.708
224.058
226.298
228.42
230.424
232.304
234.056
235.676
237.164
238.511
239.719
240.793
241.763
242.704
243.684
244.433
243.86
242.061
241.918
241.174
240.36
239.596
238.729
238.101
237.82
237.753
236.656
235.603
234.519
233.269
231.986
230.486
228.928
227.39
225.764
224.083
222.117
219.862
217.685
215.653
213.574
211.106
208.805
206.402
203.894
201.331
198.746
196.173
193.625
190.985
188.388
186.084
183.869
181.559
179.974
177.234
173.914
171.282
168.821
165.917
163.127
163.344
167.069
167.369
172.483
5.21278
1.37312
1.14389
1.12598
1.17539
1.26256
1.37807
1.51835
1.68192
1.8679
2.07567
2.30455
2.55398
2.82353
3.11299
3.42241
3.75207
4.10243
4.47416
4.86804
5.28482
5.7253
6.19034
6.68075
7.19726
7.74076
8.31188
8.91123
9.53944
10.1973
10.8857
11.6057
12.3577
13.1423
13.96
14.8118
15.699
16.6224
17.5827
18.5802
19.6153
20.6885
21.7998
22.9508
24.142
25.3738
26.6468
27.9613
29.3178
30.7165
32.1576
33.6415
35.1687
36.7389
38.3527
40.0105
41.7123
43.4585
45.2498
47.086
48.9679
50.8959
52.8707
54.8936
56.9669
59.0945
61.2839
63.5455
65.8928
68.3398
70.8938
73.5516
76.2925
79.0878
81.9181
84.787
87.725
90.7833
94.0121
97.4107
100.905
104.387
107.814
111.224
114.671
118.144
121.592
125.141
128.72
132.224
135.672
139.103
142.651
146.415
150.223
153.934
157.545
161.078
164.619
168.008
171.362
174.818
178.29
181.694
185.057
188.305
191.478
194.581
197.612
200.565
203.437
206.223
208.917
211.517
214.016
216.411
218.698
220.872
222.928
224.865
226.679
228.366
229.922
231.346
232.636
233.789
234.813
235.726
236.59
237.527
238.66
239.903
240.981
241.462
241.096
240.4
239.733
239.054
238.392
238.034
237.68
236.888
235.898
234.971
233.868
232.379
230.866
229.469
228.161
226.698
224.874
222.762
220.632
218.694
216.649
214.379
212.046
209.807
207.407
204.828
202.158
199.436
196.681
193.902
191.099
188.318
185.682
183.232
181.016
179.005
176.387
173.354
170.472
167.645
164.649
161.632
159.305
157.995
156.212
154.926
7.06525
1.85075
1.49323
1.43576
1.46931
1.55084
1.66595
1.80892
1.97712
2.16909
2.3838
2.62039
2.87803
3.15607
3.45399
3.77161
4.10886
4.466
4.84348
5.24191
5.66196
6.10439
6.56999
7.05963
7.57404
8.11408
8.68059
9.27422
9.8959
10.5464
11.2266
11.9374
12.6794
13.4535
14.2606
15.1014
15.9769
16.8878
17.8349
18.8188
19.8407
20.9012
22.0012
23.1416
24.3227
25.5453
26.8104
28.1185
29.4707
30.8673
32.3092
33.797
35.3318
36.9138
38.5443
40.2242
41.9541
43.7352
45.5691
47.4564
49.3988
51.3978
53.4552
55.5732
57.7547
60.0033
62.3255
64.729
67.2236
69.8195
72.5218
75.3274
78.2211
81.1805
84.1867
87.2351
90.3413
93.5347
96.8419
100.263
103.765
107.301
110.836
114.362
117.89
121.437
125.019
128.665
132.371
136.104
139.834
143.559
147.313
151.131
154.983
158.808
162.585
166.33
170.052
173.748
177.416
181.06
184.664
188.218
191.718
195.148
198.506
201.786
204.986
208.103
211.129
214.062
216.894
219.623
222.242
224.746
227.132
229.396
231.53
233.536
235.407
237.141
238.733
240.184
241.49
242.652
243.673
244.567
245.366
246.137
246.979
247.912
248.728
249.051
248.834
248.283
247.634
246.923
246.168
245.512
244.817
243.863
242.701
241.492
240.127
238.471
236.745
235.066
233.394
231.599
229.551
227.292
225.009
222.798
220.478
217.986
215.453
212.949
210.325
207.556
204.7
201.788
198.84
195.864
192.875
189.912
187.054
184.397
181.949
179.517
176.773
173.772
170.76
167.771
164.755
161.721
158.727
155.978
153.576
151.554
8.88771
2.33093
1.84187
1.74323
1.75968
1.83402
1.94678
2.08989
2.25956
2.45372
2.67108
2.91053
3.17124
3.45246
3.75358
4.07428
4.41444
4.77416
5.15379
5.55383
5.97492
6.41779
6.88324
7.37213
7.88526
8.42355
8.98792
9.57918
10.1983
10.8461
11.5235
12.2316
12.971
13.7429
14.5481
15.3876
16.2624
17.1732
18.1213
19.1074
20.1327
21.1981
22.3046
23.4534
24.6452
25.8812
27.1625
28.4901
29.8652
31.289
32.7624
34.2868
35.8635
37.4935
39.1784
40.9197
42.7188
44.5773
46.4974
48.4804
50.5285
52.6439
54.829
57.086
59.4178
61.8274
64.3192
66.898
69.5695
72.3395
75.2108
78.1825
81.2474
84.3932
87.6088
90.8889
94.2378
97.6655
101.181
104.782
108.458
112.191
115.966
119.776
123.62
127.502
131.426
135.396
139.413
143.468
147.55
151.651
155.77
159.905
164.045
168.175
172.285
176.379
180.439
184.48
188.495
192.476
196.413
200.297
204.118
207.867
211.537
215.121
218.616
222.015
225.312
228.502
231.58
234.539
237.373
240.079
242.65
245.082
247.369
249.51
251.499
253.335
255.011
256.528
257.884
259.078
260.113
260.997
261.748
262.398
262.991
263.536
263.935
264.019
263.747
263.196
262.481
261.648
260.727
259.771
258.722
257.475
256.037
254.478
252.769
250.866
248.859
246.804
244.689
242.468
240.088
237.565
234.982
232.376
229.676
226.86
223.993
221.109
218.141
215.072
211.932
208.744
205.526
202.287
199.044
195.822
192.675
189.671
186.797
183.919
180.899
177.743
174.553
171.384
168.254
165.155
162.05
159.076
156.496
154.329
10.5991
2.79476
2.17503
2.03397
2.03239
2.09798
2.20644
2.3474
2.51589
2.70926
2.92587
3.16457
3.42445
3.70479
4.00505
4.32488
4.66414
5.02289
5.40145
5.80027
6.21995
6.6612
7.1248
7.61167
8.12266
8.65872
9.22085
9.80991
10.427
11.073
11.749
12.4561
13.1951
13.9673
14.7736
15.6153
16.4933
17.4088
18.3631
19.3572
20.3924
21.47
22.5911
23.7573
24.9697
26.2297
27.5389
28.8985
30.3104
31.7759
33.2967
34.8744
36.511
38.208
39.9675
41.7915
43.682
45.6411
47.6716
49.7752
51.9547
54.2126
56.5515
58.9742
61.4832
64.0811
66.7714
69.5569
72.4408
75.4262
78.5145
81.7061
84.9974
88.3833
91.8581
95.4176
99.0618
102.792
106.608
110.509
114.489
118.541
122.659
126.838
131.075
135.366
139.711
144.106
148.548
153.033
157.552
162.099
166.665
171.244
175.826
180.403
184.969
189.522
194.036
198.527
202.986
207.405
211.775
216.085
220.324
224.482
228.552
232.525
236.395
240.155
243.798
247.318
250.709
253.962
257.073
260.034
262.842
265.491
267.972
270.287
272.428
274.394
276.177
277.779
279.196
280.428
281.478
282.35
283.054
283.609
284.033
284.326
284.444
284.315
283.905
283.242
282.384
281.366
280.214
278.955
277.561
275.986
274.227
272.312
270.247
268.024
265.68
263.235
260.692
258.043
255.272
252.388
249.422
246.388
243.267
240.057
236.79
233.485
230.114
226.672
223.175
219.638
216.08
212.507
208.936
205.385
201.886
198.476
195.144
191.826
188.46
185.036
181.597
178.192
174.854
171.59
168.387
165.327
162.581
160.172
12.1394
3.2272
2.48177
2.29838
2.27795
2.3335
2.43609
2.57309
2.73841
2.92878
3.14228
3.37766
3.63402
3.91071
4.20722
4.52328
4.85879
5.21384
5.58871
5.98385
6.39985
6.83741
7.29733
7.78054
8.28789
8.82041
9.37916
9.96509
10.5793
11.2229
11.8971
12.6029
13.3415
14.1142
14.9223
15.7668
16.6493
17.5709
18.5333
19.5376
20.5855
21.6786
22.8182
24.0063
25.2444
26.5343
27.8778
29.2768
30.7334
32.2495
33.8273
35.469
37.1771
38.9534
40.8009
42.722
44.7192
46.7952
48.9532
51.1955
53.5253
55.9455
58.4591
61.069
63.778
66.5881
69.503
72.5245
75.6547
78.8957
82.248
85.7126
89.2875
92.9704
96.7586
100.65
104.642
108.733
112.923
117.207
121.584
126.047
130.594
135.219
139.919
144.689
149.524
154.419
159.368
164.365
169.403
174.474
179.569
184.681
189.8
194.917
200.025
205.119
210.17
215.191
220.174
225.11
229.986
234.792
239.517
244.152
248.684
253.106
257.409
261.585
265.627
269.526
273.274
276.863
280.288
283.541
286.616
289.507
292.209
294.715
297.023
299.129
301.027
302.715
304.193
305.459
306.514
307.36
308.008
308.465
308.744
308.842
308.741
308.401
307.803
306.957
305.891
304.633
303.204
301.622
299.876
297.947
295.832
293.546
291.1
288.502
285.769
282.911
279.936
276.844
273.64
270.329
266.924
263.437
259.863
256.212
252.499
248.743
244.93
241.065
237.157
233.218
229.264
225.303
221.348
217.413
213.519
209.685
205.907
202.159
198.411
194.655
190.913
187.221
183.613
180.106
176.711
173.479
170.496
167.762
13.4694
3.61721
2.75458
2.53035
2.4906
2.53518
2.63069
2.76239
2.92309
3.10896
3.31776
3.54815
3.79922
4.07038
4.3612
4.6715
5.00124
5.35053
5.7197
6.10918
6.51959
6.95162
7.40609
7.88395
8.38606
8.91353
9.46746
10.0489
10.6591
11.2992
11.9704
12.6741
13.4115
14.1842
14.9935
15.8408
16.7278
17.6558
18.627
19.6426
20.7047
21.8151
22.9757
24.1887
25.456
26.7799
28.1626
29.6066
31.1143
32.6883
34.3313
36.046
37.8354
39.7021
41.6496
43.6808
45.7989
48.0071
50.3093
52.7081
55.2074
57.8102
60.5201
63.3405
66.274
69.3233
72.4916
75.7808
79.1929
82.7294
86.3908
90.1782
94.0905
98.1266
102.285
106.564
110.962
115.476
120.104
124.843
129.69
134.64
139.69
144.835
150.068
155.386
160.78
166.245
171.772
177.356
182.986
188.655
194.353
200.07
205.798
211.525
217.244
222.944
228.595
234.209
239.776
245.285
250.724
256.081
261.344
266.501
271.542
276.455
281.23
285.857
290.329
294.635
298.767
302.716
306.474
310.033
313.389
316.533
319.457
322.16
324.634
326.877
328.881
330.647
332.172
333.453
334.494
335.294
335.863
336.206
336.329
336.236
335.914
335.345
334.515
333.43
332.103
330.556
328.809
326.874
324.751
322.435
319.925
317.233
314.37
311.348
308.179
304.872
301.434
297.871
294.193
290.404
286.519
282.544
278.486
274.354
270.16
265.919
261.632
257.304
252.944
248.56
244.169
239.778
235.397
231.039
226.718
222.447
218.226
214.048
209.897
205.771
201.687
197.669
193.749
189.95
186.291
182.804
179.531
176.449
14.5683
3.95791
2.9892
2.72645
2.66756
2.70067
2.78827
2.91372
3.06879
3.24911
3.45218
3.67651
3.92119
4.18565
4.46956
4.77279
5.09536
5.43746
5.79945
6.18179
6.58513
7.01015
7.4577
7.92876
8.4243
8.94535
9.49314
10.0689
10.6739
11.3096
11.9771
12.678
13.4136
14.1858
14.996
15.8461
16.7376
17.6726
18.6535
19.6818
20.7598
21.8898
23.0742
24.3156
25.6164
26.9793
28.407
29.9025
31.4691
33.1096
34.8274
36.6258
38.5087
40.4791
42.5411
44.6985
46.955
49.3144
51.7813
54.359
57.0515
59.8628
62.7967
65.857
69.0468
72.3691
75.8271
79.4231
83.159
87.0367
91.0565
95.2197
99.5256
103.974
108.563
113.291
118.158
123.159
128.293
133.555
138.943
144.451
150.075
155.808
161.644
167.577
173.599
179.701
185.874
192.11
198.399
204.73
211.093
217.478
223.873
230.266
236.647
243.005
249.305
255.557
261.751
267.876
273.916
279.859
285.692
291.4
296.973
302.399
307.664
312.76
317.673
322.395
326.916
331.226
335.318
339.182
342.811
346.198
349.336
352.218
354.84
357.2
359.289
361.107
362.65
363.919
364.914
365.637
366.095
366.29
366.232
365.922
365.356
364.524
363.418
362.04
360.403
358.52
356.411
354.085
351.552
348.81
345.865
342.725
339.402
335.91
332.26
328.461
324.522
320.451
316.262
311.958
307.555
303.061
298.483
293.837
289.128
284.377
279.584
274.762
269.915
265.054
260.193
255.338
250.501
245.69
240.919
236.196
231.526
226.91
222.342
217.823
213.367
208.996
204.736
200.611
196.643
192.853
189.259
185.825
15.4292
4.24554
3.18389
2.8859
2.80857
2.83004
2.90921
3.02773
3.17648
3.35059
3.54727
3.76492
4.00257
4.25969
4.53598
4.83137
5.14596
5.48001
5.83389
6.20815
6.60338
7.02052
7.46047
7.92411
8.41233
8.92621
9.46718
10.0365
10.6357
11.2661
11.9294
12.6272
13.3612
14.1333
14.9454
15.7994
16.6975
17.6419
18.635
19.6789
20.7763
21.9303
23.1438
24.4197
25.7611
27.171
28.653
30.2106
31.8476
33.5677
35.3749
37.2732
39.2673
41.3609
43.5588
45.8656
48.2857
50.8236
53.4846
56.2724
59.1922
62.248
65.4445
68.7857
72.2753
75.9164
79.7128
83.6669
87.7808
92.0564
96.4944
101.096
105.861
110.787
115.876
121.124
126.53
132.089
137.801
143.659
149.659
155.797
162.065
168.457
174.964
181.579
188.293
195.094
201.974
208.922
215.925
222.973
230.053
237.153
244.258
251.358
258.44
265.489
272.47
279.387
286.233
292.991
299.651
306.192
312.603
318.869
324.977
330.913
336.663
342.218
347.561
352.684
357.578
362.231
366.632
370.774
374.648
378.248
381.563
384.592
387.326
389.763
391.894
393.722
395.241
396.453
397.357
397.957
398.258
398.264
397.982
397.416
396.565
395.426
393.993
392.273
390.273
388.005
385.486
382.729
379.744
376.533
373.108
369.477
365.652
361.647
357.475
353.143
348.667
344.052
339.317
334.464
329.511
324.467
319.344
314.152
308.904
303.617
298.295
292.951
287.594
282.23
276.874
271.533
266.217
260.933
255.694
250.51
245.383
240.322
235.326
230.398
225.554
220.81
216.19
211.718
207.413
203.291
199.358
195.57
16.0567
4.47925
3.33892
3.00968
2.91496
2.92508
2.99557
3.10677
3.24878
3.41628
3.60624
3.81692
4.0473
4.29685
4.56528
4.85261
5.15892
5.48479
5.83057
6.19654
6.58338
6.99202
7.4235
7.87892
8.35932
8.86604
9.40045
9.96393
10.5581
11.1846
11.8452
12.5418
13.2762
14.0509
14.8679
15.7296
16.6384
17.597
18.6083
19.6749
20.7995
21.9865
23.2391
24.561
25.9556
27.427
28.9793
30.6167
32.3439
34.1653
36.0857
38.1101
40.2438
42.4914
44.8587
47.351
49.9735
52.7315
55.6309
58.6765
61.8735
65.2272
68.742
72.4232
76.2742
80.2985
84.5006
88.8826
93.4466
98.1948
103.127
108.246
113.549
119.035
124.705
130.554
136.58
142.78
149.148
155.681
162.371
169.212
176.196
183.316
190.56
197.921
205.385
212.943
220.582
228.289
236.051
243.854
251.685
259.53
267.373
275.2
282.996
290.749
298.416
306.001
313.495
320.883
328.148
335.273
342.243
349.042
355.657
362.072
368.273
374.246
379.979
385.461
390.679
395.624
400.285
404.651
408.716
412.472
415.908
419.022
421.807
424.261
426.374
428.15
429.584
430.676
431.429
431.844
431.928
431.686
431.124
430.247
429.058
427.557
425.746
423.626
421.207
418.502
415.524
412.288
408.804
405.084
401.135
396.97
392.602
388.042
383.309
378.411
373.363
368.174
362.862
357.433
351.904
346.288
340.594
334.838
329.03
323.189
317.32
311.438
305.552
299.669
293.804
287.962
282.154
276.387
270.673
265.019
259.433
253.925
248.496
243.153
237.91
232.782
227.79
222.957
218.3
213.83
209.547
205.406
16.4617
4.66008
3.45598
3.09987
2.98926
2.98862
3.05055
3.15434
3.28948
3.45028
3.6335
3.83728
4.06055
4.30282
4.56393
4.84363
5.14201
5.45961
5.79703
6.1549
6.53398
6.93518
7.35953
7.80826
8.28254
8.78385
9.31375
9.8738
10.4658
11.0917
11.7536
12.4536
13.194
13.9774
14.8064
15.6839
16.6125
17.595
18.6352
19.7371
20.9048
22.142
23.4526
24.8412
26.3123
27.8706
29.5212
31.2691
33.1202
35.0796
37.1531
39.3468
41.6668
44.1189
46.7094
49.4449
52.3312
55.3743
58.5813
61.9571
65.508
69.239
73.1556
77.2627
81.5648
86.0646
90.7666
95.6729
100.785
106.106
111.633
117.369
123.311
129.458
135.807
142.354
149.096
156.027
163.141
170.432
177.893
185.514
193.286
201.197
209.239
217.398
225.662
234.018
242.451
250.946
259.489
268.065
276.656
285.249
293.825
302.369
310.865
319.299
327.624
335.844
343.949
351.921
359.743
367.398
374.868
382.14
389.193
396.018
402.595
408.913
414.959
420.719
426.179
431.333
436.167
440.672
444.841
448.665
452.133
455.247
457.996
460.38
462.391
464.028
465.293
466.184
466.706
466.858
466.652
466.087
465.172
463.919
462.326
460.401
458.146
455.565
452.669
449.469
445.98
442.215
438.189
433.912
429.397
424.657
419.708
414.561
409.234
403.74
398.093
392.306
386.395
380.369
374.247
368.041
361.764
355.43
349.051
342.646
336.221
329.795
323.374
316.964
310.584
304.237
297.934
291.682
285.492
279.372
273.331
267.379
261.52
255.762
250.12
244.605
239.239
234.04
229.025
224.201
219.566
215.075
16.6646
4.79034
3.53758
3.15933
3.03492
3.02438
3.0782
3.17485
3.30337
3.45778
3.63487
3.83246
4.04925
4.28478
4.53896
4.81183
5.10364
5.41484
5.74604
6.09796
6.47154
6.86779
7.28791
7.73325
8.20522
8.7055
9.23592
9.79833
10.3948
11.0277
11.6995
12.4127
13.1697
13.9733
14.8269
15.7346
16.7001
17.7276
18.8211
19.9845
21.2228
22.5405
23.9431
25.4359
27.0246
28.7149
30.513
32.4252
34.4583
36.6187
38.9134
41.3493
43.9339
46.6735
49.5761
52.6485
55.8975
59.3298
62.953
66.7724
70.794
75.0241
79.4671
84.1286
89.0113
94.1186
99.4542
105.019
110.813
116.838
123.092
129.575
136.282
143.211
150.357
157.714
165.279
173.041
180.994
189.13
197.437
205.907
214.525
223.282
232.162
241.154
250.241
259.409
268.64
277.919
287.231
296.554
305.876
315.175
324.437
333.641
342.773
351.818
360.726
369.498
378.123
386.584
394.865
402.944
410.807
418.437
425.817
432.932
439.766
446.306
452.538
458.45
464.029
469.266
474.147
478.666
482.812
486.583
489.964
492.957
495.552
497.751
499.544
500.936
501.925
502.512
502.701
502.496
501.902
500.926
499.578
497.864
495.795
493.371
490.603
487.495
484.059
480.305
476.251
471.908
467.293
462.419
457.3
451.952
446.387
440.624
434.681
428.566
422.303
415.9
409.377
402.745
396.021
389.22
382.355
375.443
368.493
361.526
354.549
347.58
340.628
333.698
326.809
319.965
313.176
306.449
299.793
293.22
286.736
280.353
274.075
267.912
261.879
255.985
250.25
244.69
239.32
234.147
229.166
224.335
16.6815
4.87355
3.5868
3.19146
3.05571
3.03662
3.08328
3.17378
3.29655
3.44538
3.61694
3.80926
4.02119
4.25216
4.502
4.77085
5.05904
5.36713
5.69585
6.04613
6.41905
6.81581
7.23789
7.68698
8.16466
8.67298
9.21402
9.7896
10.4026
11.056
11.7533
12.4974
13.2921
14.1416
15.0495
16.0201
17.0579
18.168
19.3559
20.6268
21.9868
23.4421
24.999
26.6646
28.4456
30.3494
32.3836
34.5557
36.874
39.3462
41.9804
44.7846
47.7676
50.9362
54.2993
57.8642
61.6381
65.6277
69.8409
74.282
78.957
83.8712
89.0282
94.4318
100.084
105.986
112.14
118.545
125.199
132.101
139.247
146.634
154.255
162.105
170.177
178.464
186.957
195.645
204.517
213.564
222.774
232.132
241.625
251.24
260.96
270.77
280.653
290.593
300.572
310.571
320.575
330.562
340.515
350.416
360.246
369.986
379.621
389.136
398.479
407.651
416.638
425.426
433.996
442.331
450.412
458.224
465.75
472.977
479.889
486.47
492.711
498.596
504.116
509.26
514.017
518.379
522.341
525.891
529.025
531.74
534.031
535.899
537.335
538.344
538.926
539.082
538.822
538.142
537.053
535.564
533.686
531.424
528.791
525.79
522.434
518.729
514.688
510.323
505.649
500.682
495.437
489.93
484.174
478.188
471.988
465.589
459.013
452.27
445.382
438.359
431.226
423.989
416.668
409.279
401.837
394.357
386.85
379.337
371.824
364.331
356.867
349.438
342.06
334.739
327.486
320.305
313.208
306.205
299.301
292.509
285.835
279.288
272.883
266.627
260.54
254.634
248.923
243.414
238.102
232.949
16.5548
4.91367
3.60709
3.19989
3.05588
3.03018
3.07104
3.15645
3.27501
3.42049
3.58934
3.77957
3.99008
4.22038
4.47037
4.74036
5.03084
5.34251
5.67635
6.03339
6.41473
6.82223
7.25784
7.72386
8.22247
8.7563
9.32835
9.94194
10.6004
11.3073
12.0666
12.8826
13.7601
14.7044
15.7207
16.815
17.9935
19.2627
20.6302
22.1028
23.6885
25.3952
27.2314
29.2058
31.3273
33.6048
36.0476
38.6648
41.4661
44.4603
47.6565
51.0634
54.69
58.5436
62.6323
66.9632
71.5424
76.3751
81.4677
86.8224
92.4432
98.3321
104.49
110.918
117.615
124.578
131.806
139.293
147.036
155.029
163.263
171.733
180.429
189.342
198.462
207.778
217.278
226.95
236.78
246.756
256.863
267.087
277.411
287.821
298.299
308.829
319.392
329.972
340.551
351.11
361.631
372.094
382.48
392.773
402.953
413.003
422.905
432.649
442.182
451.503
460.6
469.457
478.058
486.386
494.425
502.158
509.572
516.651
523.383
529.754
535.751
541.364
546.583
551.397
555.798
559.778
563.33
566.45
569.129
571.368
573.162
574.511
575.412
575.868
575.882
575.456
574.592
573.3
571.588
569.465
566.941
564.026
560.729
557.062
553.034
548.657
543.942
538.903
533.556
527.916
522
515.824
509.404
502.759
495.905
488.86
481.644
474.269
466.759
459.124
451.389
443.56
435.66
427.704
419.705
411.683
403.644
395.615
387.596
379.61
371.666
363.768
355.935
348.171
340.487
332.887
325.383
317.982
310.693
303.526
296.488
289.588
282.839
276.249
269.834
263.606
257.579
251.756
246.135
240.683
16.2761
4.9153
3.60227
3.18874
3.03953
3.01016
3.04886
3.13328
3.25205
3.39902
3.57077
3.7653
3.98153
4.21888
4.47778
4.75892
5.06324
5.39185
5.7463
6.12857
6.54071
6.985
7.46417
7.98123
8.53941
9.14267
9.79523
10.5015
11.2667
12.0962
12.9961
13.973
15.0337
16.1862
17.4384
18.7989
20.2768
21.8815
23.6233
25.512
27.5584
29.7734
32.1677
34.7524
37.5384
40.5361
43.7559
47.2077
50.9013
54.845
59.0468
63.5139
68.2531
73.2686
78.5653
84.1465
90.0133
96.1666
102.607
109.332
116.339
123.625
131.184
139.012
147.102
155.445
164.034
172.86
181.913
191.183
200.658
210.329
220.182
230.205
240.385
250.709
261.164
271.736
282.409
293.17
304.005
314.897
325.832
336.793
347.765
358.731
369.674
380.578
391.426
402.2
412.882
423.456
433.904
444.209
454.354
464.323
474.1
483.677
493.006
502.082
510.895
519.431
527.676
535.615
543.232
550.515
557.449
564.021
570.221
576.035
581.454
586.468
591.067
595.243
598.99
602.299
605.167
607.588
609.558
611.076
612.14
612.749
612.904
612.612
611.867
610.678
609.051
606.995
604.516
601.627
598.337
594.657
590.599
586.175
581.396
576.274
570.824
565.058
558.993
552.645
546.031
539.168
532.072
524.763
517.257
509.572
501.731
493.743
485.634
477.415
469.11
460.727
452.287
443.806
435.298
426.78
418.26
409.763
401.29
392.864
384.492
376.181
367.946
359.792
351.73
343.764
335.904
328.159
320.534
313.041
305.685
298.476
291.427
284.543
277.84
271.328
265.019
258.917
253.021
247.303
15.9513
4.88183
3.57662
3.1649
3.01729
2.99033
3.0329
3.12296
3.24897
3.40491
3.58804
3.79684
4.03085
4.29027
4.57571
4.88826
5.22957
5.60175
6.00731
6.44918
6.93082
7.45615
8.02961
8.65624
9.34147
10.0916
10.9137
11.8152
12.8045
13.8908
15.0841
16.395
17.8347
19.4159
21.151
23.0531
25.136
27.4134
29.8997
32.6082
35.5526
38.7457
42.1997
45.926
49.9344
54.2335
58.8309
63.7321
68.9421
74.463
80.296
86.4404
92.8954
99.6557
106.718
114.076
121.722
129.647
137.844
146.3
155.007
163.951
173.122
182.508
192.096
201.872
211.826
221.944
232.214
242.624
253.159
263.808
274.559
285.397
296.311
307.288
318.315
329.38
340.469
351.571
362.671
373.757
384.815
395.832
406.794
417.689
428.5
439.215
449.819
460.296
470.633
480.815
490.825
500.65
510.275
519.685
528.869
537.821
546.497
554.891
562.995
570.798
578.286
585.448
592.269
598.739
604.845
610.576
615.923
620.875
625.422