/*--------------------------------*- C++ -*----------------------------------*\
  =========                 |
  \\      /  F ield         | OpenFOAM: The Open Source CFD Toolbox
   \\    /   O peration     | Website:  https://openfoam.org
    \\  /    A nd           | Version:  7
     \\/     M anipulation  |
\*---------------------------------------------------------------------------*/
FoamFile
{
    version     2.0;
    format      ascii;
    class       volScalarField;
    location    "700";
    object      k;
}
// * * * * * * * * * * * * * * * * * * * * * * * * * * * * * * * * * * * * * //

dimensions      [0 2 -2 0 0 0 0];

internalField   nonuniform List<scalar> 
48900
(
0.585489
0.308413
0.266386
0.268136
0.316189
0.388496
0.450075
0.491572
0.516607
0.531501
0.540994
0.547715
0.552985
0.557456
0.561341
0.56471
0.567645
0.570176
0.394168
0.535254
0.532865
0.556133
0.633941
0.735285
0.831274
0.911085
0.974977
1.02671
1.06976
1.10652
1.13836
1.16621
1.19059
1.21183
1.23008
1.24499
0.376431
0.40691
0.414972
0.415556
0.415197
0.417067
0.422413
0.43059
0.441267
0.45426
0.469503
0.486871
0.506135
0.526958
0.548909
0.571471
0.594005
0.615651
0.374643
0.382083
0.386177
0.386891
0.385806
0.383546
0.380969
0.378398
0.375993
0.373805
0.371983
0.37062
0.369808
0.369655
0.37006
0.371137
0.372831
0.375045
0.374397
0.37493
0.376328
0.376571
0.375859
0.374265
0.372165
0.369771
0.367216
0.364587
0.361942
0.359333
0.356801
0.354378
0.352096
0.349972
0.348014
0.346221
0.374429
0.372897
0.372347
0.371859
0.371024
0.369769
0.368178
0.366347
0.364355
0.362264
0.360115
0.357942
0.355774
0.353633
0.351535
0.349498
0.347533
0.345646
0.374436
0.372362
0.370805
0.369604
0.368451
0.367194
0.365797
0.364275
0.362656
0.360967
0.359236
0.357481
0.355722
0.353973
0.352247
0.350555
0.348904
0.3473
0.37443
0.37224
0.37029
0.36862
0.36713
0.365712
0.364304
0.362879
0.36143
0.359963
0.358483
0.357
0.355522
0.354057
0.352614
0.351197
0.349811
0.348459
0.374425
0.372197
0.370126
0.368238
0.366517
0.364922
0.363414
0.361963
0.360551
0.359167
0.357806
0.356468
0.355153
0.353863
0.352601
0.351367
0.350163
0.34899
0.374421
0.37217
0.370058
0.368087
0.366251
0.364537
0.36293
0.361412
0.359967
0.358584
0.357253
0.355969
0.354727
0.353525
0.35236
0.351232
0.350138
0.349076
0.374419
0.372151
0.370017
0.368012
0.366126
0.364352
0.362681
0.361104
0.359613
0.358199
0.356854
0.35557
0.354344
0.353169
0.352042
0.350959
0.349917
0.348912
0.374417
0.372138
0.36999
0.367966
0.366058
0.364255
0.362551
0.36094
0.359415
0.35797
0.3566
0.355299
0.354061
0.352881
0.351757
0.350682
0.349653
0.348667
0.374416
0.37213
0.369972
0.367936
0.366014
0.364196
0.362476
0.360846
0.359301
0.357836
0.356447
0.355127
0.353873
0.352681
0.351546
0.350464
0.349432
0.348444
0.374415
0.372123
0.369957
0.367911
0.365978
0.364149
0.362416
0.360773
0.359214
0.357734
0.356329
0.354994
0.353725
0.352517
0.351368
0.350274
0.34923
0.348234
0.374414
0.372117
0.369945
0.367891
0.365949
0.36411
0.362368
0.360715
0.359145
0.357655
0.356238
0.354891
0.35361
0.35239
0.351228
0.350121
0.349065
0.348058
0.374413
0.372113
0.369936
0.367876
0.365927
0.36408
0.36233
0.360669
0.359092
0.357593
0.356168
0.354812
0.353521
0.352292
0.35112
0.350003
0.348938
0.347921
0.374413
0.37211
0.36993
0.367865
0.365911
0.364058
0.362302
0.360635
0.359051
0.357546
0.356114
0.354751
0.353453
0.352217
0.351038
0.349914
0.348842
0.347818
0.374413
0.372109
0.369926
0.367859
0.365901
0.364044
0.362284
0.360612
0.359023
0.357513
0.356076
0.354708
0.353405
0.352164
0.35098
0.349851
0.348774
0.347746
0.374413
0.372108
0.369925
0.367857
0.365897
0.364039
0.362276
0.360602
0.359011
0.357498
0.356058
0.354686
0.35338
0.352135
0.350949
0.349817
0.348736
0.347706
0.374413
0.37211
0.369928
0.367861
0.365903
0.364046
0.362284
0.36061
0.359019
0.357506
0.356065
0.354694
0.353387
0.352142
0.350954
0.349822
0.348741
0.34771
0.374414
0.372112
0.369933
0.36787
0.365915
0.364061
0.362303
0.360632
0.359043
0.357533
0.356094
0.354725
0.35342
0.352177
0.350992
0.349861
0.348782
0.347753
0.374415
0.372117
0.369942
0.367885
0.365936
0.364089
0.362336
0.360671
0.359089
0.357584
0.356152
0.354789
0.353491
0.352254
0.351075
0.349952
0.348879
0.347857
0.374416
0.372124
0.369957
0.367909
0.365971
0.364135
0.362396
0.360746
0.359181
0.357695
0.356283
0.354939
0.35366
0.352441
0.351278
0.350167
0.349105
0.348089
0.374419
0.372135
0.369981
0.367951
0.366042
0.364248
0.362561
0.360969
0.359463
0.35803
0.356664
0.355357
0.354103
0.352897
0.351737
0.350619
0.349542
0.348503
0.374421
0.372153
0.370036
0.3681
0.366342
0.364724
0.363206
0.361754
0.360346
0.358972
0.357625
0.356305
0.355011
0.353745
0.352507
0.351299
0.350121
0.348976
0.374403
0.372214
0.370412
0.368993
0.367744
0.366506
0.365208
0.363838
0.362408
0.360938
0.359448
0.357954
0.356469
0.355003
0.353561
0.352148
0.350769
0.349427
0.374341
0.372988
0.372901
0.372809
0.37225
0.371193
0.369771
0.368125
0.366368
0.364571
0.362778
0.361012
0.359288
0.357613
0.35599
0.354425
0.35292
0.351476
0.375445
0.379136
0.383349
0.384298
0.38359
0.381797
0.379745
0.377833
0.376199
0.374881
0.37385
0.373068
0.372503
0.372135
0.371953
0.371973
0.372172
0.372578
0.404618
0.415013
0.420713
0.41785
0.414715
0.415478
0.420686
0.430246
0.442777
0.457149
0.472505
0.488275
0.504117
0.519846
0.535372
0.550655
0.565676
0.580425
0.364331
0.560232
0.522893
0.547592
0.630448
0.743094
0.856835
0.95396
1.02864
1.08276
1.12099
1.148
1.16746
1.18189
1.193
1.20183
1.20908
1.21515
0.000482202
0.00132089
0.00284905
0.00419046
0.00533371
0.00634371
0.00729391
0.00827227
0.00928842
0.0103737
0.0115491
0.0128292
0.0142145
0.0157113
0.0173232
0.0190564
0.0209237
0.0229335
0.0251056
0.0274533
0.0299991
0.0327647
0.0357657
0.0390256
0.0425658
0.0463963
0.0505376
0.0550032
0.0598064
0.0649597
0.0704756
0.0763528
0.0825926
0.0891989
0.0961683
0.103513
0.111224
0.119302
0.127752
0.136564
0.145748
0.155292
0.165196
0.175469
0.186093
0.197066
0.208394
0.220056
0.232067
0.244399
0.257065
0.270036
0.283323
0.296891
0.310751
0.32489
0.339265
0.353882
0.368725
0.383732
0.398871
0.414086
0.429287
0.444354
0.459119
0.473361
0.486815
0.499159
0.510045
0.519085
0.525463
0.532444
0.540326
0.549034
0.558432
0.572158
0.584973
0.597099
0.610795
0.618447
0.61611
0.620354
0.626111
0.621607
0.630702
0.610446
0.597089
0.629335
0.610768
0.608028
0.596675
0.587338
0.616288
0.647862
0.647501
0.62493
0.589442
0.605752
0.649824
0.629534
0.653888
0.690987
0.649568
0.690318
0.650373
0.657523
0.664417
0.671278
0.67792
0.684315
0.690407
0.696283
0.70175
0.706932
0.711801
0.716457
0.720675
0.724584
0.728156
0.731399
0.734299
0.736844
0.738928
0.740763
0.742216
0.743251
0.743804
0.743677
0.742738
0.739471
0.732075
0.728557
0.848998
0.92227
0.898416
0.893156
0.825948
0.932256
0.787697
0.81169
0.917137
0.939601
0.898888
0.820878
0.944782
0.822142
0.833064
0.922887
0.776382
0.813384
0.9021
0.822051
0.904035
0.848759
0.850901
0.910588
0.874924
0.91264
0.905511
0.896187
0.886788
0.876263
0.864028
0.850821
0.838766
0.83213
0.817321
0.962787
1.02827
1.01433
1.00087
0.986154
0.966028
0.952644
0.948107
0.933858
0.767301
0.622327
0.621454
0.563526
0.00161094
0.0116748
0.0179904
0.0227005
0.0267139
0.0303579
0.0338147
0.0372111
0.0406373
0.0441523
0.0477938
0.0515834
0.0555292
0.0596407
0.0639257
0.0683919
0.073051
0.0779172
0.0830041
0.0883288
0.0939047
0.0997494
0.105875
0.112295
0.119018
0.126055
0.133414
0.141099
0.149114
0.157464
0.166152
0.175179
0.184547
0.194261
0.204316
0.214711
0.225453
0.236542
0.247977
0.259759
0.271884
0.28436
0.297179
0.310348
0.323859
0.337716
0.351912
0.366446
0.381316
0.39652
0.41205
0.427899
0.444072
0.460548
0.477326
0.494394
0.511745
0.529358
0.547222
0.565308
0.583587
0.601986
0.620446
0.638874
0.657115
0.675034
0.692491
0.709387
0.725734
0.741726
0.757808
0.774513
0.79213
0.810851
0.830565
0.850678
0.870638
0.889814
0.907567
0.924158
0.941619
0.960731
0.979691
0.996981
1.01266
1.02498
1.04548
1.06635
1.08578
1.11369
1.14449
1.17395
1.19206
1.20179
1.21361
1.24243
1.28007
1.30446
1.32528
1.35183
1.37741
1.40264
1.42122
1.4415
1.45953
1.47952
1.49908
1.51826
1.53697
1.55526
1.57303
1.59029
1.60703
1.62321
1.63881
1.65385
1.66824
1.68201
1.69515
1.70762
1.71939
1.73048
1.7408
1.75038
1.75918
1.76712
1.77416
1.7801
1.78473
1.78783
1.7915
1.80252
1.82671
1.83267
1.83998
1.83988
1.84087
1.84822
1.83898
1.8367
1.83826
1.83794
1.83144
1.82765
1.82924
1.82165
1.81761
1.81169
1.79433
1.78688
1.77899
1.7671
1.76159
1.7486
1.73736
1.72811
1.71382
1.70226
1.68823
1.6743
1.66029
1.64616
1.63185
1.61696
1.60215
1.58705
1.5696
1.53834
1.52362
1.50669
1.48758
1.47117
1.45381
1.43712
1.4216
1.40732
1.40062
1.3561
1.33203
1.27396
0.0029841
0.0202022
0.0287979
0.0350024
0.0403098
0.0452008
0.049908
0.0545742
0.0592912
0.064121
0.0691015
0.0742546
0.0795952
0.0851317
0.0908738
0.096829
0.103012
0.109434
0.116112
0.12306
0.130295
0.13783
0.145677
0.15385
0.162355
0.171204
0.180403
0.189958
0.199875
0.210159
0.220813
0.231839
0.243237
0.255011
0.267163
0.279689
0.292598
0.305885
0.319556
0.333608
0.348043
0.362859
0.37806
0.39364
0.409605
0.425947
0.44267
0.459772
0.47725
0.495096
0.513311
0.531891
0.550833
0.570125
0.589761
0.609743
0.630059
0.650694
0.671645
0.692893
0.714416
0.736189
0.758175
0.780304
0.802518
0.824719
0.846839
0.868833
0.890723
0.912674
0.93493
0.957853
0.98169
1.00654
1.03224
1.05839
1.08453
1.11033
1.13594
1.16202
1.18915
1.2172
1.24534
1.27306
1.30011
1.32686
1.35499
1.38324
1.41274
1.44434
1.47643
1.50628
1.53271
1.55797
1.58631
1.61836
1.65072
1.67961
1.70774
1.73662
1.76466
1.79254
1.81915
1.84508
1.8707
1.89605
1.92081
1.94501
1.96863
1.99164
2.01403
2.03576
2.05681
2.07714
2.09674
2.11557
2.13363
2.15088
2.16728
2.18285
2.19752
2.21132
2.22418
2.23608
2.24701
2.2569
2.26571
2.27334
2.27974
2.2851
2.29035
2.29782
2.30679
2.3111
2.313
2.31356
2.31354
2.3137
2.31031
2.30745
2.30458
2.3003
2.29426
2.28831
2.28256
2.27441
2.26572
2.25574
2.24379
2.23207
2.21923
2.20594
2.19258
2.17787
2.16263
2.14693
2.13006
2.11316
2.09544
2.07756
2.05951
2.04123
2.02271
2.00381
1.98461
1.96496
1.94431
1.91926
1.89689
1.87583
1.85336
1.83179
1.81092
1.79024
1.76956
1.74998
1.73892
1.72191
1.70049
1.66362
0.0045297
0.0283268
0.0390023
0.0465449
0.0529275
0.0587766
0.0643906
0.0699425
0.0755444
0.0812681
0.0871614
0.0932512
0.0995543
0.106082
0.112843
0.119846
0.127102
0.134622
0.142422
0.150518
0.158923
0.167652
0.17672
0.186137
0.195913
0.206062
0.216588
0.227502
0.238806
0.250504
0.262604
0.275108
0.288016
0.301336
0.315069
0.329213
0.343772
0.358747
0.374143
0.389958
0.406195
0.422855
0.439937
0.457445
0.475375
0.493729
0.512509
0.531712
0.551339
0.571385
0.591851
0.612734
0.634031
0.655739
0.677852
0.700369
0.723286
0.746592
0.770295
0.794377
0.818832
0.843648
0.868807
0.894292
0.920057
0.946076
0.97231
0.99874
1.0254
1.05237
1.07982
1.10792
1.13681
1.16655
1.197
1.22793
1.25909
1.29036
1.32192
1.35404
1.38689
1.42032
1.45403
1.48775
1.52135
1.55492
1.58869
1.62261
1.65695
1.69176
1.7267
1.76112
1.79485
1.82836
1.86234
1.89672
1.93084
1.96424
1.99717
2.02983
2.06204
2.09388
2.12514
2.15587
2.18607
2.21566
2.24458
2.27281
2.30034
2.32714
2.35319
2.37845
2.40289
2.4265
2.44922
2.47104
2.49193
2.51186
2.53081
2.54875
2.56565
2.5815
2.59625
2.60991
2.62241
2.63374
2.64385
2.6527
2.66028
2.66672
2.67248
2.67835
2.68392
2.68727
2.68844
2.68832
2.68744
2.6857
2.68239
2.67871
2.67439
2.6686
2.66148
2.65391
2.64555
2.6353
2.62421
2.61235
2.59957
2.58588
2.5709
2.55486
2.53827
2.52122
2.50324
2.48433
2.46471
2.4448
2.42415
2.40301
2.38153
2.3597
2.33754
2.31496
2.292
2.26862
2.24479
2.22021
2.1959
2.17146
2.14613
2.12089
2.09621
2.0718
2.04747
2.02373
2.00261
1.98143
1.95896
1.93169
0.00614087
0.0360308
0.0486841
0.0574982
0.0648724
0.0715661
0.0779382
0.0841972
0.0904767
0.0968653
0.103423
0.110187
0.117181
0.124422
0.131919
0.139685
0.147727
0.156059
0.164693
0.173645
0.182929
0.192558
0.202546
0.212908
0.223653
0.234792
0.246336
0.258288
0.270659
0.283453
0.296676
0.310333
0.324425
0.338962
0.353941
0.369367
0.385244
0.401575
0.418364
0.435609
0.453318
0.471488
0.490124
0.50923
0.528807
0.548853
0.569373
0.590366
0.611838
0.633783
0.656203
0.679102
0.702479
0.726327
0.750654
0.775457
0.800731
0.82648
0.852705
0.879398
0.906566
0.934202
0.962305
0.990869
1.01989
1.04933
1.07921
1.10952
1.14027
1.17152
1.20333
1.2358
1.26898
1.3029
1.33749
1.37263
1.4082
1.44415
1.48053
1.51742
1.55482
1.59267
1.63085
1.66923
1.70773
1.74631
1.78498
1.82377
1.86269
1.90176
1.94087
1.97991
2.01879
2.05749
2.09605
2.13439
2.17243
2.21013
2.24732
2.28413
2.32051
2.35645
2.39189
2.42676
2.461
2.49452
2.52728
2.55925
2.59041
2.62073
2.65016
2.6787
2.70628
2.7329
2.7585
2.78306
2.80653
2.82892
2.85014
2.87023
2.88912
2.9068
2.92323
2.9384
2.95227
2.96482
2.97603
2.98587
2.99437
3.00157
3.00773
3.01312
3.0176
3.02039
3.02128
3.02076
3.01916
3.01648
3.01255
3.00782
3.00211
2.99497
2.98649
2.97712
2.96664
2.95459
2.94149
2.92751
2.91258
2.89661
2.87941
2.86106
2.84195
2.82223
2.80158
2.77993
2.75759
2.73476
2.7112
2.68705
2.66246
2.63742
2.61199
2.58614
2.5599
2.53323
2.50627
2.47912
2.45182
2.4241
2.39588
2.36756
2.33953
2.31181
2.28438
2.25747
2.2316
2.20638
2.18209
2.15697
0.007726
0.0431744
0.0576551
0.0676574
0.0759531
0.0834145
0.0904551
0.0973131
0.104144
0.111053
0.118116
0.12538
0.13288
0.140639
0.148672
0.156993
0.165614
0.174547
0.183805
0.193401
0.20335
0.213665
0.22436
0.235447
0.246937
0.258842
0.271173
0.283936
0.29714
0.310791
0.324897
0.339464
0.354495
0.369999
0.385977
0.402436
0.419379
0.43681
0.454737
0.47316
0.492084
0.511516
0.531454
0.551909
0.572881
0.594373
0.616392
0.638937
0.662017
0.685631
0.709784
0.734477
0.759718
0.785504
0.811843
0.838736
0.866183
0.894189
0.922766
0.951904
0.981615
1.0119
1.04277
1.07423
1.10626
1.13888
1.17209
1.20588
1.24027
1.27529
1.31095
1.3473
1.38437
1.42214
1.46059
1.49966
1.5393
1.57947
1.62014
1.66131
1.70294
1.74499
1.78739
1.83009
1.87301
1.9161
1.95934
2.00269
2.04614
2.08965
2.1332
2.17671
2.22012
2.26336
2.30637
2.34908
2.39145
2.43348
2.47498
2.51603
2.5566
2.59667
2.63617
2.67503
2.71317
2.75052
2.78703
2.82266
2.85737
2.89112
2.92386
2.95558
2.98622
3.01575
3.04412
3.07131
3.09727
3.12198
3.14539
3.1675
3.18826
3.20765
3.22563
3.24219
3.25732
3.27095
3.2831
3.29376
3.30294
3.3107
3.31718
3.32249
3.32652
3.32892
3.32951
3.32855
3.32626
3.3227
3.31786
3.31193
3.30479
3.29622
3.28622
3.27503
3.26257
3.2487
3.23363
3.21747
3.20024
3.18189
3.16239
3.14175
3.1202
3.09781
3.07448
3.05018
3.02511
2.9994
2.973
2.94594
2.91837
2.89032
2.86184
2.83292
2.8036
2.77388
2.74386
2.71359
2.68306
2.65222
2.62108
2.58986
2.5588
2.52804
2.49774
2.46806
2.43935
2.41169
2.38535
2.35899
0.00921488
0.0496227
0.0657419
0.0768235
0.085959
0.0941169
0.101754
0.109135
0.116433
0.12377
0.131231
0.138878
0.146756
0.154895
0.163319
0.172044
0.181088
0.190461
0.200178
0.210253
0.220699
0.231528
0.242754
0.254391
0.266449
0.278939
0.291873
0.305257
0.319104
0.33342
0.348214
0.363492
0.379259
0.395528
0.4123
0.429584
0.447384
0.465706
0.484561
0.50395
0.523882
0.544361
0.565395
0.58699
0.609153
0.631886
0.655201
0.679101
0.703593
0.728686
0.754383
0.780689
0.807618
0.835166
0.863347
0.892166
0.92163
0.951741
0.982517
1.01396
1.04607
1.07886
1.11235
1.14653
1.18142
1.21701
1.25332
1.29034
1.32809
1.36657
1.40579
1.44576
1.48648
1.52794
1.57012
1.61298
1.6565
1.70064
1.74535
1.7906
1.83634
1.88254
1.92913
1.97608
2.02332
2.07079
2.11846
2.16628
2.2142
2.26219
2.3102
2.35817
2.40602
2.45372
2.50117
2.54831
2.59509
2.64149
2.68731
2.73264
2.77743
2.82162
2.86518
2.90801
2.95003
2.99119
3.03142
3.07068
3.10889
3.14603
3.18204
3.21688
3.25053
3.2829
3.314
3.34375
3.37213
3.3991
3.42461
3.44866
3.4712
3.49222
3.51164
3.5295
3.54574
3.56035
3.57331
3.58463
3.59433
3.60246
3.60911
3.61433
3.61805
3.62005
3.62022
3.61869
3.61563
3.61112
3.60518
3.59794
3.58933
3.57921
3.56761
3.55459
3.54022
3.52445
3.50736
3.48905
3.46955
3.44887
3.42701
3.40401
3.37997
3.35499
3.32901
3.30208
3.27431
3.24583
3.21661
3.18674
3.1563
3.12534
3.09394
3.06209
3.02984
2.99719
2.96421
2.93093
2.89736
2.86355
2.82958
2.79554
2.76166
2.72809
2.69505
2.66278
2.63157
2.60164
2.57301
2.54445
0.0105552
0.0552857
0.0728302
0.0848618
0.0947429
0.103521
0.111689
0.119529
0.127232
0.134928
0.142715
0.150665
0.158831
0.167253
0.175961
0.184977
0.194322
0.20401
0.214055
0.224474
0.235278
0.24648
0.258093
0.270132
0.282606
0.295526
0.308907
0.322755
0.337082
0.351897
0.367209
0.383028
0.39936
0.416218
0.433606
0.451535
0.470013
0.489045
0.508645
0.528818
0.549573
0.57092
0.592866
0.615422
0.638595
0.662396
0.686832
0.711914
0.737653
0.764057
0.791134
0.818898
0.847358
0.87652
0.906397
0.937004
0.968343
1.00043
1.03327
1.06688
1.10127
1.13645
1.17243
1.20921
1.24682
1.28524
1.32449
1.36458
1.40551
1.44727
1.48986
1.53328
1.57752
1.62257
1.6684
1.71499
1.7623
1.8103
1.85896
1.90822
1.95803
2.00835
2.05913
2.11032
2.16186
2.2137
2.26578
2.31804
2.37043
2.42289
2.47537
2.52781
2.58014
2.63229
2.6842
2.73578
2.78698
2.83775
2.88791
2.9375
2.98649
3.03482
3.08241
3.12918
3.17508
3.22002
3.26393
3.30675
3.34842
3.38889
3.42812
3.46605
3.50262
3.53779
3.57152
3.60376
3.63447
3.66361
3.69114
3.71703
3.74125
3.76378
3.78456
3.80358
3.82083
3.83629
3.84994
3.86178
3.87185
3.88018
3.88684
3.89188
3.89522
3.89672
3.89633
3.89411
3.89017
3.88459
3.87744
3.86881
3.85866
3.84694
3.83362
3.81879
3.80249
3.78473
3.76558
3.74511
3.72335
3.70034
3.67611
3.6507
3.62419
3.59665
3.56807
3.53854
3.5081
3.47692
3.44497
3.41236
3.37915
3.3454
3.31119
3.27653
3.24145
3.20598
3.17017
3.13404
3.09763
3.06104
3.02433
2.98761
2.95106
2.91486
2.87925
2.84448
2.81086
2.77857
2.74754
2.71668
0.0117125
0.0601185
0.0788644
0.0917062
0.102228
0.111545
0.120174
0.128416
0.136467
0.14447
0.152528
0.160721
0.169111
0.177744
0.186657
0.195878
0.20543
0.215332
0.225601
0.236251
0.247298
0.258753
0.27063
0.282943
0.295702
0.308921
0.322611
0.336782
0.351448
0.366616
0.382301
0.398511
0.415254
0.432547
0.450396
0.468813
0.487808
0.507391
0.527578
0.548374
0.569794
0.591847
0.614546
0.637906
0.661935
0.686648
0.712055
0.73817
0.765009
0.792583
0.820905
0.849989
0.879851
0.9105
0.941954
0.974227
1.00733
1.04128
1.07609
1.11177
1.14833
1.18579
1.22417
1.26346
1.30369
1.34484
1.38695
1.42999
1.47398
1.51891
1.56477
1.61155
1.65924
1.70782
1.75726
1.80753
1.85861
1.91046
1.96302
2.01626
2.07014
2.12458
2.17955
2.23499
2.29083
2.34702
2.4035
2.46019
2.51703
2.57396
2.63092
2.68783
2.74462
2.80122
2.85756
2.91356
2.96915
3.02425
3.07869
3.13251
3.18564
3.23804
3.28961
3.34028
3.38997
3.4386
3.48611
3.53242
3.57745
3.62116
3.66349
3.70438
3.74379
3.78164
3.81789
3.85249
3.88541
3.91661
3.94601
3.97363
3.9994
4.02331
4.0453
4.06537
4.08349
4.09965
4.11385
4.12606
4.13635
4.14474
4.15128
4.15598
4.15883
4.15974
4.15864
4.1556
4.15066
4.14393
4.13549
4.12539
4.11365
4.10024
4.08516
4.06846
4.05019
4.03041
4.00917
3.98652
3.96251
3.93718
3.91058
3.88275
3.85378
3.82371
3.7926
3.7605
3.72748
3.69366
3.65909
3.62383
3.58796
3.55152
3.51462
3.47726
3.43949
3.40133
3.36281
3.32401
3.28494
3.24572
3.20642
3.16715
3.12809
3.08941
3.05137
3.01423
2.97827
2.94363
2.91024
2.87713
0.012668
0.0641138
0.0838386
0.097347
0.108401
0.118169
0.127189
0.135771
0.144119
0.152379
0.160662
0.169051
0.177614
0.186403
0.19546
0.204818
0.214504
0.224539
0.234943
0.245733
0.256924
0.268529
0.280564
0.293041
0.305972
0.319371
0.333252
0.347624
0.362502
0.377898
0.393824
0.410293
0.427315
0.444908
0.463082
0.481849
0.501225
0.521219
0.541853
0.563134
0.58508
0.607704
0.631022
0.655051
0.679806
0.705302
0.731556
0.758583
0.786405
0.815036
0.844492
0.874791
0.905956
0.937997
0.970935
1.00479
1.03958
1.07531
1.11201
1.14969
1.18837
1.22806
1.26877
1.31052
1.35331
1.39715
1.44204
1.48799
1.535
1.58305
1.63213
1.68223
1.73334
1.78542
1.83845
1.8924
1.94724
2.00292
2.0594
2.11662
2.17455
2.23312
2.29227
2.35195
2.41207
2.47259
2.53343
2.59451
2.65576
2.71711
2.7785
2.83982
2.90101
2.96199
3.02269
3.08301
3.14288
3.20223
3.26084
3.31875
3.37591
3.43224
3.48766
3.54208
3.59542
3.64759
3.69853
3.74816
3.7964
3.84318
3.88844
3.93212
3.97416
4.0145
4.0531
4.0899
4.12486
4.15792
4.18904
4.21819
4.24532
4.27044
4.29347
4.31441
4.33323
4.34993
4.3645
4.37694
4.3873
4.39557
4.40183
4.40609
4.40833
4.40851
4.40659
4.40258
4.39656
4.38859
4.37877
4.36715
4.35377
4.33862
4.32173
4.30313
4.28288
4.26105
4.23768
4.21285
4.18659
4.15896
4.13004
4.09983
4.06845
4.03594
4.00235
3.96778
3.93225
3.89592
3.85881
3.82102
3.78261
3.74363
3.70418
3.66427
3.62395
3.58324
3.5422
3.50088
3.45932
3.41764
3.37592
3.33426
3.29285
3.25186
3.21154
3.17215
3.13395
3.09705
3.06138
3.02609
0.0134173
0.0672939
0.0877833
0.101817
0.113295
0.123426
0.132762
0.141622
0.150212
0.158683
0.167144
0.175686
0.184379
0.193277
0.202428
0.211867
0.221625
0.231727
0.242195
0.253046
0.264299
0.275968
0.288068
0.300615
0.31362
0.327099
0.341066
0.355533
0.370517
0.386028
0.402085
0.418701
0.435887
0.453665
0.472047
0.49105
0.510689
0.530981
0.551948
0.573601
0.595962
0.619048
0.642879
0.667475
0.692856
0.71904
0.746049
0.773902
0.802626
0.832237
0.862757
0.894208
0.926616
0.959995
0.994373
1.02977
1.0662
1.10369
1.14226
1.18192
1.2227
1.2646
1.30764
1.35184
1.39719
1.44371
1.4914
1.54026
1.59028
1.64145
1.69376
1.7472
1.80172
1.85732
1.91395
1.97159
2.03019
2.08971
2.1501
2.2113
2.27326
2.33593
2.39922
2.46309
2.52744
2.59222
2.65734
2.72272
2.78827
2.85394
2.91961
2.98522
3.05066
3.11588
3.18075
3.24522
3.30919
3.37256
3.43514
3.49694
3.55789
3.61792
3.67696
3.73488
3.79163
3.84709
3.9012
3.95388
4.00505
4.05463
4.10255
4.14875
4.19318
4.23577
4.27644
4.31517
4.3519
4.38658
4.41915
4.4496
4.47788
4.50397
4.5278
4.5494
4.56871
4.58575
4.6005
4.61297
4.6232
4.6312
4.63703
4.6407
4.6422
4.64152
4.63862
4.63355
4.62634
4.61706
4.6058
4.59261
4.57755
4.56063
4.54189
4.52138
4.49914
4.47526
4.4498
4.4228
4.39435
4.36447
4.33327
4.30076
4.26705
4.23219
4.19625
4.1593
4.1214
4.08269
4.04321
4.00303
3.96225
3.92089
3.87905
3.83677
3.79408
3.75101
3.70763
3.66399
3.62014
3.5762
3.53225
3.48839
3.44481
3.40168
3.35925
3.31776
3.27744
3.2384
3.20055
3.16316
0.0139644
0.0697018
0.0907543
0.105179
0.116975
0.127379
0.136958
0.146031
0.154807
0.163437
0.172034
0.180686
0.189466
0.198433
0.207632
0.217106
0.226885
0.236998
0.247469
0.258318
0.269564
0.281223
0.293312
0.305849
0.318845
0.332318
0.346285
0.360758
0.375756
0.391294
0.40739
0.42406
0.441319
0.459191
0.477692
0.49684
0.516657
0.537161
0.558378
0.580324
0.603025
0.626502
0.650779
0.675881
0.701832
0.728655
0.756376
0.785019
0.814615
0.845185
0.876755
0.909352
0.943005
0.977731
1.01356
1.05052
1.08863
1.12791
1.1684
1.21009
1.25301
1.29718
1.34262
1.38932
1.43731
1.48656
1.53711
1.58894
1.64203
1.69638
1.75197
1.80877
1.86676
1.9259
1.98617
2.0475
2.10987
2.17322
2.23749
2.30264
2.36859
2.43528
2.50263
2.57058
2.63904
2.70794
2.77718
2.84667
2.91635
2.9861
3.05584
3.12548
3.19493
3.2641
3.33287
3.40118
3.46892
3.53601
3.60222
3.66755
3.73195
3.79533
3.8576
3.91866
3.97843
4.0368
4.09371
4.14906
4.20277
4.25477
4.30497
4.35333
4.39976
4.44421
4.48662
4.52692
4.56508
4.60105
4.63474
4.66618
4.69528
4.72205
4.74642
4.76839
4.78795
4.80507
4.81977
4.83206
4.84195
4.84949
4.8547
4.85761
4.85823
4.85656
4.85258
4.84632
4.83782
4.82715
4.81439
4.79959
4.78283
4.76413
4.74354
4.72113
4.69694
4.67103
4.64351
4.61442
4.58384
4.55181
4.51843
4.48374
4.44782
4.41075
4.3726
4.33344
4.29334
4.25243
4.21074
4.16838
4.12541
4.08188
4.03788
3.99343
3.9486
3.9034
3.85791
3.81218
3.76628
3.7203
3.67435
3.62852
3.58299
3.53793
3.49357
3.45015
3.40787
3.36684
3.32695
3.2876
0.0143163
0.0713931
0.0928232
0.107514
0.119526
0.130119
0.139864
0.149084
0.157989
0.166727
0.175411
0.184131
0.192958
0.201951
0.21116
0.220626
0.230384
0.240461
0.250885
0.261678
0.27286
0.284451
0.296468
0.30893
0.321852
0.335253
0.349151
0.363563
0.378509
0.394007
0.410077
0.426739
0.44401
0.461917
0.480481
0.499723
0.51967
0.540342
0.561771
0.583978
0.606993
0.630843
0.655557
0.681164
0.707693
0.735172
0.763633
0.793104
0.82362
0.855207
0.887895
0.921716
0.956703
0.992876
1.03027
1.06891
1.10882
1.15003
1.19256
1.23642
1.28164
1.32823
1.3762
1.42556
1.47632
1.52846
1.582
1.63692
1.6932
1.75083
1.80978
1.87003
1.93155
1.99428
2.05819
2.12322
2.18935
2.25649
2.32458
2.39357
2.4634
2.53397
2.60521
2.67704
2.74938
2.82214
2.89522
2.96854
3.042
3.11549
3.18893
3.26222
3.33525
3.40794
3.48017
3.55186
3.6229
3.69322
3.76255
3.83092
3.89825
3.96445
4.02944
4.09311
4.15537
4.21613
4.27529
4.33279
4.38852
4.44242
4.49441
4.54442
4.59236
4.6382
4.68186
4.72329
4.76244
4.79925
4.83366
4.86568
4.89524
4.92233
4.94688
4.9689
4.98838
5.0053
5.01969
5.03152
5.04085
5.0477
5.05209
5.05408
5.05368
5.05087
5.04567
5.03811
5.02825
5.01612
5.00181
4.98539
4.96692
4.94646
4.92406
4.89977
4.87368
4.84584
4.81635
4.78527
4.75268
4.71863
4.68322
4.6465
4.60855
4.56946
4.52929
4.48813
4.44605
4.40316
4.3595
4.3152
4.2703
4.22484
4.17893
4.13258
4.08587
4.03882
3.99149
3.94396
3.89627
3.84854
3.80085
3.7533
3.70607
3.65932
3.61327
3.56812
3.52409
3.48124
3.43952
3.3984
0.0144945
0.0724307
0.0940697
0.10891
0.121044
0.131742
0.14158
0.150882
0.159855
0.168648
0.177372
0.186115
0.194949
0.203932
0.213113
0.222535
0.232233
0.242237
0.252575
0.26327
0.274347
0.285826
0.297728
0.310073
0.322877
0.336163
0.349952
0.364264
0.379121
0.394545
0.410563
0.427194
0.444459
0.462388
0.481007
0.500347
0.520434
0.541295
0.562962
0.585467
0.608847
0.633135
0.658363
0.684567
0.711781
0.740037
0.769373
0.799821
0.831422
0.864207
0.898209
0.933462
0.970005
1.00786
1.04706
1.08764
1.12962
1.17301
1.21786
1.26417
1.31196
1.36123
1.412
1.46427
1.51804
1.57329
1.63003
1.68823
1.74787
1.80893
1.87137
1.93515
2.00024
2.06659
2.13413
2.20283
2.27262
2.34343
2.41519
2.48784
2.56129
2.63547
2.71029
2.78566
2.86149
2.9377
3.01418
3.09083
3.16755
3.24425
3.32083
3.39716
3.47317
3.54874
3.62378
3.69818
3.77184
3.84469
3.91646
3.98716
4.05671
4.12503
4.19203
4.25759
4.32164
4.38407
4.44481
4.50377
4.56085
4.61598
4.66909
4.7201
4.76895
4.81558
4.8599
4.90188
4.94147
4.97862
5.01325
5.04537
5.07491
5.10188
5.1262
5.1479
5.16695
5.18333
5.19708
5.20818
5.21668
5.2226
5.22597
5.22684
5.22526
5.22117
5.21464
5.20569
5.19438
5.18075
5.16488
5.14684
5.1267
5.10452
5.08036
5.0543
5.0264
4.99675
4.96544
4.93251
4.89809
4.86221
4.82497
4.78643
4.74669
4.70581
4.66388
4.62099
4.57718
4.5326
4.48727
4.44131
4.39478
4.3477
4.3002
4.25228
4.20402
4.15544
4.1066
4.05758
4.00843
3.95926
3.91014
3.86118
3.81256
3.7644
3.71692
3.67031
3.62477
3.58036
3.53704
3.49438
0.0145093
0.0728797
0.0945745
0.109457
0.121624
0.13235
0.14221
0.151528
0.160512
0.169307
0.178023
0.186747
0.195547
0.204484
0.213605
0.222952
0.232565
0.242473
0.252703
0.263281
0.274234
0.285585
0.297355
0.309567
0.322241
0.335404
0.349082
0.363296
0.378074
0.393441
0.409427
0.426059
0.443363
0.461375
0.480125
0.499646
0.519973
0.541141
0.56318
0.586133
0.610054
0.634977
0.660941
0.687985
0.716148
0.74547
0.775991
0.807751
0.840792
0.875149
0.91086
0.947958
0.986485
1.02646
1.06792
1.11089
1.1554
1.20145
1.24908
1.29828
1.34907
1.40145
1.45542
1.51098
1.56811
1.62678
1.68699
1.74871
1.8119
1.87653
1.94254
2.00991
2.07857
2.14846
2.21953
2.29172
2.36495
2.43914
2.51423
2.59015
2.66679
2.74409
2.82194
2.90027
2.97896
3.05794
3.1371
3.21634
3.29556
3.37465
3.45352
3.53205
3.61015
3.68772
3.76464
3.84083
3.91619
3.99064
4.06391
4.13599
4.20683
4.27633
4.34441
4.41096
4.47589
4.53911
4.60053
4.66008
4.71767
4.77321
4.82664
4.87788
4.92687
4.97354
5.01783
5.05969
5.09908
5.13593
5.17018
5.20184
5.23085
5.2572
5.28083
5.30176
5.31997
5.33545
5.34822
5.35828
5.36567
5.37041
5.37256
5.37216
5.3692
5.36372
5.35576
5.34535
5.33254
5.31739
5.29997
5.28035
5.2586
5.2348
5.209
5.1813
5.15177
5.12048
5.08754
5.05299
5.01696
4.97949
4.9407
4.90063
4.85938
4.81702
4.77365
4.72935
4.68417
4.63823
4.59158
4.54434
4.49654
4.44823
4.39951
4.3504
4.30096
4.25124
4.20128
4.15115
4.10092
4.05068
4.0005
3.95049
3.90081
3.85158
3.803
3.75524
3.70848
3.66281
3.61818
3.57426
0.0143993
0.0728126
0.0944284
0.109256
0.121375
0.132053
0.141868
0.151141
0.160078
0.168825
0.177488
0.186153
0.194887
0.203748
0.212783
0.222035
0.231538
0.241327
0.251433
0.261884
0.272708
0.283931
0.29558
0.307683
0.320264
0.333353
0.346979
0.361169
0.375957
0.391374
0.407454
0.424234
0.441745
0.460033
0.479135
0.499088
0.519925
0.541688
0.564446
0.588242
0.613127
0.639144
0.666337
0.694753
0.724438
0.755433
0.787785
0.821534
0.856725
0.893393
0.931573
0.971298
1.0126
1.0555
1.10003
1.1462
1.19402
1.2435
1.29465
1.34746
1.40193
1.45804
1.51579
1.57514
1.63607
1.69855
1.76254
1.82801
1.89489
1.96316
2.03274
2.10359
2.17564
2.24882
2.32307
2.39832
2.47449
2.5515
2.62928
2.70774
2.7868
2.86638
2.94637
3.02671
3.10727
3.18799
3.26876
3.34947
3.43004
3.51036
3.59034
3.66986
3.74883
3.82716
3.90474
3.98148
4.05728
4.13208
4.20562
4.27788
4.3488
4.41829
4.48627
4.55265
4.61732
4.68021
4.74124
4.80032
4.85737
4.91232
4.9651
5.01563
5.06385
5.1097
5.15312
5.19406
5.23246
5.2683
5.30149
5.33205
5.35991
5.38507
5.40748
5.42716
5.44407
5.45823
5.46964
5.47832
5.4843
5.48761
5.48829
5.48643
5.48195
5.47495
5.46547
5.45354
5.43922
5.42256
5.40363
5.3825
5.35925
5.33396
5.30669
5.27753
5.24656
5.21387
5.17955
5.14366
5.10631
5.06757
5.02755
4.98628
4.94388
4.90042
4.85599
4.81067
4.76451
4.71764
4.67009
4.62198
4.57334
4.52422
4.47472
4.42486
4.3747
4.32426
4.27362
4.22283
4.17194
4.12105
4.07022
4.01956
3.96921
3.91929
3.86997
3.82141
3.77379
3.72718
3.68157
3.63671
0.0141584
0.0722428
0.0936257
0.108295
0.120278
0.130834
0.140537
0.149706
0.158546
0.167201
0.175776
0.184355
0.193002
0.201776
0.210721
0.219882
0.229296
0.238999
0.249023
0.259402
0.270167
0.281349
0.292981
0.305097
0.317727
0.330908
0.344677
0.35907
0.374127
0.389892
0.406404
0.423702
0.441819
0.460827
0.480784
0.501744
0.523766
0.546908
0.571225
0.596754
0.623555
0.651682
0.681188
0.712125
0.744539
0.778473
0.813968
0.851059
0.889785
0.930167
0.972229
1.01599
1.06146
1.10865
1.15756
1.20818
1.26051
1.31453
1.37023
1.42756
1.48651
1.54705