/*--------------------------------*- C++ -*----------------------------------*\
  =========                 |
  \\      /  F ield         | OpenFOAM: The Open Source CFD Toolbox
   \\    /   O peration     | Website:  https://openfoam.org
    \\  /    A nd           | Version:  7
     \\/     M anipulation  |
\*---------------------------------------------------------------------------*/
FoamFile
{
    version     2.0;
    format      ascii;
    class       volScalarField;
    location    "700";
    object      nut;
}
// * * * * * * * * * * * * * * * * * * * * * * * * * * * * * * * * * * * * * //

dimensions      [0 2 -1 0 0 0 0];

internalField   nonuniform List<scalar> 
48900
(
0.000143057
8.8182e-06
7.61636e-06
7.66656e-06
9.04036e-06
1.11078e-05
1.28684e-05
1.40548e-05
1.47706e-05
1.51965e-05
1.54677e-05
1.566e-05
1.58107e-05
1.59385e-05
1.60497e-05
1.61463e-05
1.62355e-05
1.63402e-05
0.000681166
0.000121995
8.83053e-05
6.77989e-05
5.89188e-05
5.56284e-05
5.49944e-05
5.5564e-05
5.66889e-05
5.80992e-05
5.9672e-05
6.13171e-05
6.29925e-05
6.46634e-05
6.63043e-05
6.78944e-05
6.94281e-05
7.09181e-05
0.000867739
0.000386177
0.000257682
0.000195581
0.000155469
0.000126012
0.000104822
8.99881e-05
7.9864e-05
7.30743e-05
6.86415e-05
6.58812e-05
6.43266e-05
6.36521e-05
6.36255e-05
6.40733e-05
6.48561e-05
6.58938e-05
0.000860147
0.000702392
0.000532881
0.000427833
0.000358019
0.000306364
0.00026592
0.000233422
0.000207127
0.000185749
0.000168336
0.000154075
0.000142333
0.000132643
0.000124532
0.000117793
0.000112205
0.00010772
0.000853364
0.000826426
0.000740123
0.000651321
0.000577887
0.000518202
0.000469131
0.000427996
0.000393067
0.000363179
0.000337474
0.000315269
0.000296002
0.000279211
0.000264529
0.000251661
0.000240386
0.000230658
0.00085214
0.000848604
0.00082705
0.000784096
0.000735762
0.00068897
0.000646156
0.000607684
0.000573284
0.000542558
0.000515109
0.000490574
0.000468625
0.000448974
0.000431367
0.000415604
0.000401536
0.000389124
0.000851903
0.000851714
0.00084759
0.000835985
0.000815186
0.00078981
0.000762724
0.000735663
0.000709533
0.000684777
0.000661587
0.000640021
0.00062006
0.000601652
0.000584727
0.000569223
0.000555101
0.000542404
0.000851895
0.000851669
0.000851185
0.000848805
0.000842984
0.000833706
0.000821246
0.000807011
0.000791735
0.000776077
0.000760449
0.000745142
0.000730347
0.00071619
0.000702746
0.000690072
0.000678223
0.000667315
0.000851894
0.000851573
0.000851341
0.000850934
0.000849773
0.000847289
0.000843203
0.000837673
0.000830879
0.000823209
0.000814885
0.000806167
0.000797288
0.000788376
0.000779566
0.000770955
0.000762635
0.000754725
0.000851891
0.000851539
0.000851242
0.000850995
0.000850695
0.000850131
0.000849096
0.000847464
0.00084517
0.000842267
0.000838811
0.000834883
0.000830616
0.00082608
0.000821368
0.000816558
0.000811715
0.000806855
0.000851888
0.000851516
0.000851184
0.000850896
0.000850641
0.000850383
0.000850061
0.000849601
0.000848944
0.000848047
0.000846893
0.000845483
0.000843834
0.000841974
0.000839933
0.000837745
0.000835452
0.000833112
0.000851886
0.000851499
0.000851148
0.000850832
0.000850548
0.000850289
0.000850045
0.000849795
0.000849517
0.000849185
0.00084878
0.000848286
0.000847696
0.000847005
0.000846219
0.000845342
0.000844387
0.000843372
0.000851885
0.000851488
0.000851124
0.000850791
0.000850488
0.00085021
0.000849953
0.000849712
0.000849483
0.000849256
0.000849022
0.000848773
0.000848501
0.0008482
0.000847864
0.000847493
0.000847086
0.000846647
0.000851883
0.000851479
0.000851104
0.000850759
0.00085044
0.000850145
0.000849871
0.000849615
0.000849376
0.000849151
0.000848938
0.000848734
0.000848535
0.000848339
0.000848143
0.000847944
0.000847739
0.000847528
0.000851882
0.000851472
0.000851088
0.000850733
0.000850403
0.000850095
0.000849808
0.000849538
0.000849285
0.000849046
0.00084882
0.000848607
0.000848406
0.000848214
0.00084803
0.000847854
0.000847684
0.000847519
0.000851881
0.000851466
0.000851077
0.000850713
0.000850374
0.000850057
0.000849759
0.000849479
0.000849215
0.000848965
0.000848728
0.000848502
0.000848288
0.000848085
0.00084789
0.000847705
0.000847527
0.000847357
0.000851881
0.000851463
0.000851069
0.000850699
0.000850354
0.000850029
0.000849724
0.000849436
0.000849164
0.000848905
0.000848659
0.000848425
0.000848202
0.000847988
0.000847784
0.000847589
0.000847402
0.000847222
0.000851881
0.00085146
0.000851064
0.000850691
0.000850341
0.000850012
0.000849702
0.000849408
0.00084913
0.000848865
0.000848613
0.000848372
0.000848142
0.000847922
0.000847711
0.000847509
0.000847316
0.00084713
0.000851881
0.00085146
0.000851063
0.000850689
0.000850337
0.000850006
0.000849693
0.000849396
0.000849114
0.000848846
0.00084859
0.000848345
0.000848111
0.000847887
0.000847672
0.000847466
0.000847269
0.000847079
0.000851881
0.000851462
0.000851066
0.000850694
0.000850344
0.000850014
0.000849702
0.000849406
0.000849124
0.000848855
0.000848599
0.000848354
0.000848119
0.000847894
0.000847678
0.000847472
0.000847274
0.000847084
0.000851882
0.000851465
0.000851073
0.000850705
0.000850359
0.000850033
0.000849725
0.000849433
0.000849154
0.000848889
0.000848635
0.000848392
0.00084816
0.000847938
0.000847724
0.000847519
0.000847322
0.000847132
0.000851883
0.000851471
0.000851085
0.000850724
0.000850386
0.000850068
0.000849768
0.000849483
0.000849211
0.000848951
0.000848701
0.000848458
0.000848219
0.000847983
0.000847747
0.00084751
0.000847269
0.000847024
0.000851886
0.00085148
0.000851104
0.000850755
0.000850431
0.000850128
0.000849837
0.000849547
0.000849244
0.000848913
0.000848539
0.000848111
0.000847623
0.000847069
0.000846447
0.00084576
0.000845009
0.000844197
0.000851892
0.000851496
0.000851137
0.000850813
0.000850492
0.000850103
0.000849546
0.000848737
0.000847618
0.000846163
0.000844377
0.000842281
0.000839907
0.000837296
0.000834489
0.00083152
0.000828428
0.000825235
0.000851921
0.000851534
0.000851206
0.000850636
0.000849323
0.000846681
0.000842715
0.000837419
0.000830967
0.000823811
0.000816018
0.000807852
0.000799473
0.000791008
0.000782554
0.000774181
0.00076594
0.00075785
0.000852163
0.000851745
0.000849752
0.000843001
0.000831108
0.000814649
0.00079599
0.000776337
0.000756556
0.000737138
0.000718345
0.000700313
0.000683108
0.000666756
0.000651256
0.000636592
0.00062273
0.000609614
0.000854664
0.000847108
0.000821462
0.000777197
0.000730049
0.000685719
0.000645653
0.000609708
0.000577355
0.000548069
0.000521446
0.000497183
0.000475045
0.000454834
0.000436374
0.000419501
0.000404058
0.00038989
0.000865931
0.000775152
0.000646695
0.000551621
0.000483969
0.000431716
0.00038919
0.000353233
0.000322188
0.000295233
0.000271832
0.000251561
0.000234034
0.000218884
0.000205776
0.000194429
0.00018456
0.000175969
0.000583442
0.000421705
0.000302159
0.000244279
0.000205128
0.000174689
0.000150603
0.000132049
0.000118
0.00010758
9.99525e-05
9.44159e-05
9.04292e-05
8.7593e-05
8.56174e-05
8.4292e-05
8.34629e-05
8.30165e-05
1.80953e-05
0.00010992
8.46192e-05
7.46078e-05
7.40769e-05
7.56145e-05
7.68398e-05
7.73018e-05
7.72068e-05
7.68633e-05
7.64913e-05
7.62071e-05
7.60544e-05
7.60365e-05
7.61379e-05
7.6337e-05
7.66115e-05
7.69408e-05
3.76879e-08
4.70788e-07
1.01499e-06
1.4919e-06
1.89749e-06
2.255e-06
2.59056e-06
2.93553e-06
3.2933e-06
3.67496e-06
4.08716e-06
4.53721e-06
5.02213e-06
5.54644e-06
6.11049e-06
6.71521e-06
7.36722e-06
8.06687e-06
8.82377e-06
9.63931e-06
1.05227e-05
1.14835e-05
1.25228e-05
1.36506e-05
1.48768e-05
1.61994e-05
1.76278e-05
1.91663e-05
2.08191e-05
2.25903e-05
2.44838e-05
2.64988e-05
2.86354e-05
3.08945e-05
3.32685e-05
3.57728e-05
3.83982e-05
4.11372e-05
4.40057e-05
4.6984e-05
5.00918e-05
5.3307e-05
5.66378e-05
6.0097e-05
6.36576e-05
6.73288e-05
7.11243e-05
7.49984e-05
7.9009e-05
8.30902e-05
8.73049e-05
9.15808e-05
9.59872e-05
0.000100443
0.000104985
0.000109648
0.00011434
0.0001191
0.000123943
0.000128826
0.000133708
0.000138588
0.000143428
0.000148176
0.000152767
0.000157121
0.000161148
0.000164764
0.000167894
0.000170488
0.00017232
0.000175899
0.000179249
0.000182959
0.000187347
0.000193876
0.000198605
0.000201522
0.000204039
0.000204911
0.000203794
0.000210129
0.000216422
0.000212365
0.000214419
0.000198121
4.24026e-05
0.000206188
4.3228e-05
4.1621e-05
4.10056e-05
4.14251e-05
4.36723e-05
4.44869e-05
4.47907e-05
4.34654e-05
3.90227e-05
3.9986e-05
4.50607e-05
4.25134e-05
4.79766e-05
0.000240025
4.88306e-05
0.000232612
4.74475e-05
4.7813e-05
4.80152e-05
4.82109e-05
4.83978e-05
4.85744e-05
4.87342e-05
4.88942e-05
4.90293e-05
4.91533e-05
4.92655e-05
4.93789e-05
4.94671e-05
4.9544e-05
4.96088e-05
4.96619e-05
4.9703e-05
4.97319e-05
4.97356e-05
4.97406e-05
4.97324e-05
4.97046e-05
4.96558e-05
4.95635e-05
4.94024e-05
4.89873e-05
4.81997e-05
4.89129e-05
0.000308545
0.000387925
0.000364006
0.000343614
0.000299891
0.000394503
0.000271912
0.000292102
0.000388409
0.000404612
0.00037178
0.000317509
0.000445459
0.000330978
0.000341696
0.000425615
0.000319017
0.000370095
0.000474847
0.000387398
0.000456901
0.000437873
0.000456123
0.000526201
0.000503689
0.000575237
0.000578821
0.000578413
0.000577976
0.000574792
0.000567919
0.000558934
0.000540775
0.000524371
0.000498165
0.000404646
0.000440036
0.000440396
0.00043314
0.000420454
0.000404214
0.00038845
0.000377711
0.000374712
0.000263773
0.000146489
0.000140026
2.16228e-05
1.25932e-07
2.40222e-05
5.52542e-05
7.73979e-05
9.28843e-05
0.000103898
0.000111899
0.000117957
0.000122899
0.000127249
0.000131315
0.000135265
0.000139165
0.000143065
0.00014699
0.000150948
0.000154956
0.000159037
0.000163206
0.000167493
0.000171917
0.000176518
0.000181317
0.000186338
0.000191602
0.000197111
0.000202882
0.000208919
0.000215216
0.000221785
0.000228623
0.000235722
0.000243081
0.000250703
0.000258567
0.00026667
0.000275003
0.000283566
0.000292346
0.000301344
0.000310539
0.000319951
0.000329552
0.000339364
0.000349357
0.000359546
0.00036992
0.000380469
0.000391205
0.000402118
0.000413211
0.000424467
0.000435914
0.000447514
0.000459284
0.000471213
0.000483302
0.000495533
0.000507914
0.000520417
0.000533033
0.000545673
0.000558322
0.000570913
0.000583278
0.00059535
0.000607055
0.000618401
0.000629539
0.000640801
0.00065272
0.000665437
0.000678808
0.000693006
0.00070749
0.0007201
0.000729506
0.000736545
0.000741914
0.000746657
0.000753766
0.000762805
0.000764097
0.000738908
0.000689973
0.00062085
0.000584886
0.000605576
0.000593614
0.000631985
0.000679373
0.000682742
0.000671807
0.000636452
0.000630936
0.000682233
0.000722587
0.000736462
0.000740627
0.000780492
0.000827724
0.000881534
0.000835657
0.00085305
0.000829444
0.000838347
0.000846298
0.000854119
0.000861707
0.000869188
0.000876449
0.000883507
0.00089042
0.000897112
0.000903574
0.000909881
0.000915923
0.000921769
0.000927429
0.000932845
0.000938013
0.000942993
0.000947672
0.000952098
0.000956279
0.000960121
0.00096358
0.000966379
0.000968337
0.000970654
0.000983068
0.00104019
0.00121068
0.00123187
0.00124489
0.0012504
0.0012529
0.00127452
0.00127421
0.00126782
0.00127418
0.00128795
0.00128876
0.00131195
0.00131796
0.00130996
0.0013164
0.0013285
0.00132693
0.00133044
0.00132122
0.00131077
0.00132365
0.00133061
0.00132798
0.00132039
0.00132371
0.00132609
0.0013219
0.00131647
0.00131093
0.00130482
0.00129756
0.0012869
0.00128027
0.00127128
0.00125004
0.00119064
0.00117353
0.00115913
0.00114825
0.00114295
0.00112875
0.00111213
0.00110041
0.00109135
0.00106087
0.000948228
0.000873159
0.000587873
2.33318e-07
3.9856e-05
9.18491e-05
0.000132272
0.000162653
0.000185389
0.000202514
0.000215666
0.00022612
0.000234841
0.00024251
0.000249586
0.000256375
0.00026306
0.000269763
0.000276547
0.000283481
0.000290596
0.00029794
0.000305558
0.000313491
0.000321764
0.000330398
0.000339425
0.000348841
0.000358641
0.000368837
0.000379441
0.000390441
0.000401845
0.000413673
0.000425952
0.000438647
0.000451704
0.000465124
0.000478878
0.000492974
0.000507381
0.000522104
0.000537131
0.000552452
0.000568065
0.000583961
0.000600126
0.000616572
0.000633276
0.000650248
0.000667494
0.000684994
0.00070274
0.000720741
0.000738993
0.000757493
0.000776227
0.000795178
0.00081437
0.000833785
0.000853398
0.000873209
0.0008932
0.000913337
0.000933588
0.000953902
0.00097413
0.000994176
0.00101381
0.00103285
0.0010511
0.0010685
0.00108521
0.00110158
0.00111833
0.00113613
0.00115536
0.0011755
0.00119523
0.00121323
0.00122858
0.00124138
0.00125323
0.0012668
0.00128287
0.00129749
0.00130515
0.00130468
0.00130013
0.0013105
0.00132417
0.00134316
0.00137484
0.0014052
0.00142411
0.0014325
0.00143591
0.00145142
0.00148047
0.00150752
0.00152778
0.00154697
0.00157767
0.00160704
0.00162709
0.00163611
0.0016494
0.00166031
0.0016764
0.00169217
0.00170759
0.00172262
0.00173729
0.00175158
0.00176547
0.00177897
0.00179202
0.00180466
0.00181684
0.0018286
0.00183989
0.00185071
0.00186107
0.00187091
0.00188029
0.00188914
0.00189744
0.00190521
0.00191233
0.00191871
0.00192389
0.00192724
0.00192853
0.00193146
0.00194865
0.0019785
0.00198707
0.00199647
0.0020042
0.00201057
0.00201815
0.00201754
0.00201492
0.00201048
0.00201229
0.00201071
0.00200952
0.00201016
0.00200687
0.00200452
0.00200043
0.00199267
0.0019861
0.00197805
0.00197173
0.00196791
0.001961
0.00195187
0.00194237
0.0019343
0.00192472
0.0019146
0.00190522
0.0018961
0.00188682
0.00187704
0.00186636
0.00185607
0.00184457
0.00182838
0.00180302
0.00178366
0.00175963
0.00174428
0.00173644
0.00172318
0.00170858
0.00169856
0.0016896
0.0016661
0.00159722
0.00155495
0.00144412
3.54252e-07
5.25932e-05
0.000119685
0.000173163
0.000214498
0.000246263
0.00027078
0.000289969
0.000305381
0.000318221
0.000329407
0.000339598
0.000349257
0.000358702
0.000368139
0.000377707
0.000387504
0.00039759
0.000408026
0.000418856
0.000430117
0.000441836
0.000454044
0.000466747
0.000479957
0.000493689
0.000507939
0.000522726
0.000538033
0.000553846
0.000570149
0.000586919
0.000604144
0.000621834
0.000639984
0.000658549
0.000677502
0.000696828
0.000716527
0.000736596
0.000757034
0.000777851
0.000799042
0.000820584
0.000842447
0.000864637
0.000887155
0.000909993
0.000933145
0.000956597
0.000980356
0.00100441
0.00102875
0.00105336
0.00107824
0.00110337
0.00112875
0.00115434
0.00118016
0.00120616
0.00123231
0.00125858
0.00128491
0.00131123
0.00133736
0.00136316
0.00138837
0.00141274
0.00143612
0.0014585
0.00148025
0.00150198
0.00152454
0.0015486
0.00157418
0.00160052
0.00162641
0.00165067
0.0016729
0.00169395
0.00171559
0.00173927
0.00176489
0.00179103
0.00181655
0.00184184
0.00186818
0.00189352
0.00191962
0.00194811
0.00197781
0.0020067
0.00203247
0.00205486
0.00207791
0.00210337
0.00212976
0.00215573
0.00218068
0.00220715
0.00223318
0.00225715
0.00227977
0.00230222
0.00232417
0.00234632
0.00236806
0.00238929
0.00240998
0.00243014
0.00244977
0.00246884
0.00248734
0.00250528
0.00252262
0.00253935
0.00255547
0.00257095
0.0025858
0.0026
0.00261352
0.00262636
0.0026385
0.0026499
0.00266053
0.00267031
0.00267914
0.00268664
0.00269216
0.00269455
0.00269335
0.00269116
0.00269029
0.00269164
0.00269806
0.00270564
0.00271139
0.00271557
0.00271641
0.00271304
0.00270831
0.00270561
0.00270251
0.00269774
0.0026934
0.00268971
0.00268459
0.00267659
0.00266565
0.00265467
0.00264528
0.00263716
0.00262816
0.00261595
0.0026031
0.00259107
0.00257836
0.00256396
0.00254999
0.00253726
0.00252502
0.00251278
0.00250034
0.0024874
0.00247409
0.00245966
0.00244244
0.0024212
0.00239747
0.00237072
0.0023501
0.0023353
0.00231984
0.00230435
0.00229149
0.00228045
0.00226573
0.00223644
0.00221095
0.00216769
4.80369e-07
6.3131e-05
0.000142853
0.000207238
0.00025778
0.00029723
0.000328156
0.000352709
0.000372634
0.000389316
0.000403835
0.000417001
0.000429403
0.00044146
0.000453459
0.000465603
0.000478016
0.000490796
0.000504007
0.000517701
0.00053191
0.000546668
0.000561987
0.000577889
0.000594379
0.000611463
0.000629143
0.000647401
0.000666243
0.000685646
0.000705598
0.000726087
0.000747091
0.000768612
0.000790617
0.000813093
0.00083603
0.000859419
0.000883245
0.000907494
0.000932164
0.000957224
0.000982671
0.0010085
0.00103472
0.00106131
0.00108826
0.00111556
0.00114321
0.00117118
0.00119948
0.0012281
0.00125702
0.00128623
0.00131571
0.00134546
0.00137544
0.00140564
0.00143605
0.00146662
0.00149735
0.0015282
0.00155911
0.00159005
0.00162091
0.00165156
0.00168187
0.00171166
0.00174076
0.00176915
0.00179698
0.00182466
0.00185281
0.00188198
0.00191242
0.00194383
0.00197554
0.00200675
0.00203712
0.00206687
0.00209679
0.0021276
0.00215967
0.00219276
0.00222638
0.00226012
0.00229368
0.00232659
0.00235902
0.00239156
0.00242449
0.00245755
0.00248991
0.00252096
0.00255131
0.00258176
0.00261247
0.00264305
0.00267296
0.00270249
0.00273158
0.00276017
0.00278832
0.00281601
0.00284316
0.0028698
0.00289586
0.00292131
0.00294614
0.00297035
0.00299392
0.00301684
0.00303907
0.00306065
0.0030815
0.00310166
0.00312107
0.00313977
0.00315768
0.00317484
0.0031912
0.00320676
0.00322147
0.00323534
0.0032483
0.00326029
0.00327122
0.00328085
0.00328882
0.00329429
0.00329654
0.00329593
0.00329491
0.0032967
0.00330153
0.00330771
0.00331287
0.00331652
0.00331802
0.00331645
0.00331323
0.00331042
0.00330745
0.00330318
0.0032986
0.00329458
0.00328924
0.00328133
0.00327121
0.00326051
0.00325065
0.00324125
0.00323055
0.00321749
0.00320392
0.00319068
0.0031765
0.00316086
0.0031454
0.00313083
0.00311668
0.00310246
0.00308803
0.0030732
0.00305782
0.00304116
0.00302225
0.00299973
0.0029735
0.00294605
0.00292251
0.00290311
0.00288478
0.00286702
0.00285062
0.00283608
0.00282375
0.00280893
0.00279039
0.0027629
6.04452e-07
7.19722e-05
0.000162428
0.00023633
0.000295053
0.000341446
0.000378262
0.000407814
0.000432003
0.000452356
0.000470082
0.000486098
0.000501107
0.000515612
0.000529974
0.000544443
0.000559193
0.000574342
0.000589971
0.000606134
0.000622871
0.000640212
0.000658173
0.000676759
0.000695985
0.000715843
0.000736334
0.000757454
0.000779181
0.000801508
0.000824421
0.000847906
0.000871947
0.00089653
0.000921634
0.000947249
0.000973358
0.000999948
0.00102701
0.00105452
0.00108248
0.00111087
0.00113967
0.00116889
0.0011985
0.0012285
0.00125889
0.00128963
0.00132073
0.00135217
0.00138394
0.00141603
0.00144842
0.0014811
0.00151405
0.00154725
0.00158068
0.00161431
0.00164815
0.00168214
0.00171628
0.00175054
0.00178489
0.0018193
0.00185371
0.00188807
0.0019223
0.00195631
0.00199002
0.00202341
0.00205653
0.0020896
0.00212294
0.00215686
0.00219156
0.002227
0.0022629
0.00229892
0.0023348
0.00237058
0.00240646
0.0024427
0.00247942
0.00251662
0.00255407
0.00259157
0.00262893
0.00266602
0.00270277
0.00273927
0.00277565
0.00281187
0.0028478
0.00288328
0.00291835
0.0029531
0.00298757
0.00302169
0.0030553
0.00308834
0.00312083
0.00315283
0.00318433
0.00321532
0.00324574
0.00327557
0.00330477
0.00333331
0.00336119
0.00338837
0.00341485
0.00344061
0.00346564
0.00348993
0.00351344
0.00353618
0.00355812
0.00357924
0.00359954
0.00361899
0.00363758
0.00365529
0.00367209
0.00368795
0.00370286
0.00371672
0.00372948
0.00374102
0.0037511
0.00375941
0.00376565
0.0037699
0.00377333
0.00377758
0.00378282
0.00378855
0.00379365
0.00379758
0.0037999
0.00380025
0.00379925
0.00379787
0.00379605
0.00379334
0.00378999
0.00378635
0.00378155
0.00377503
0.00376697
0.00375802
0.00374888
0.0037394
0.00372881
0.00371672
0.00370398
0.00369094
0.00367698
0.00366189
0.00364665
0.00363168
0.00361682
0.00360179
0.00358646
0.00357062
0.00355407
0.00353636
0.00351674
0.00349406
0.00346843
0.00344219
0.00341797
0.00339626
0.00337589
0.00335615
0.00333711
0.00331942
0.00330477
0.00329064
0.00327222
0.00324524
7.21029e-07
7.92974e-05
0.000178839
0.000261148
0.000327203
0.000379994
0.000422332
0.000456651
0.00048496
0.000508889
0.000529738
0.000548526
0.000566037
0.000582846
0.000599385
0.000615957
0.000632773
0.000649978
0.000667674
0.000685927
0.000704782
0.000724268
0.000744397
0.000765184
0.000786632
0.000808735
0.000831494
0.000854888
0.000878918
0.000903567
0.000928824
0.000954666
0.000981079
0.00100806
0.00103558
0.00106363
0.00109218
0.00112124
0.00115078
0.0011808
0.00121127
0.00124218
0.00127353
0.00130529
0.00133746
0.00137002
0.00140296
0.00143627
0.00146992
0.00150392
0.00153824
0.00157287
0.00160779
0.00164299
0.00167844
0.00171414
0.00175006
0.00178618
0.00182248
0.00185895
0.00189556
0.0019323
0.00196915
0.0020061
0.00204311
0.00208017
0.00211726
0.00215433
0.00219137
0.00222836
0.00226534
0.0023024
0.00233967
0.0023773
0.00241541
0.00245399
0.00249299
0.00253226
0.00257168
0.00261121
0.00265086
0.00269068
0.00273065
0.00277076
0.00281094
0.00285105
0.00289103
0.00293082
0.00297035
0.00300965
0.00304872
0.00308754
0.00312606
0.00316429
0.00320218
0.00323969
0.00327679
0.00331345
0.00334963
0.00338523
0.00342028
0.00345478
0.00348875
0.00352215
0.00355496
0.00358715
0.0036187
0.00364956
0.00367972
0.00370916
0.00373785
0.0037658
0.00379298
0.00381936
0.00384495
0.00386971
0.00389364
0.00391671
0.00393889
0.0039602
0.0039806
0.0040001
0.00401861
0.00403618
0.00405272
0.00406823
0.00408263
0.00409586
0.00410779
0.00411832
0.00412738
0.00413506
0.00414185
0.00414832
0.0041547
0.0041609
0.00416649
0.00417113
0.00417453
0.00417654
0.00417745
0.00417764
0.00417721
0.00417595
0.00417391
0.0041711
0.00416722
0.00416211
0.00415585
0.00414863
0.00414066
0.00413195
0.00412226
0.00411154
0.00410006
0.00408793
0.00407492
0.00406102
0.00404666
0.00403216
0.00401749
0.00400249
0.00398706
0.00397105
0.0039543
0.00393644
0.00391701
0.00389535
0.00387161
0.00384718
0.00382355
0.00380119
0.00377983
0.00375899
0.00373852
0.00371896
0.0037014
0.00368462
0.00366484
0.00363783
8.25993e-07
8.52397e-05
0.000192355
0.000281997
0.000354643
0.000413327
0.000460858
0.000499732
0.000532029
0.000559449
0.000583359
0.000604854
0.000624776
0.000643777
0.000662337
0.00068081
0.00069945
0.000718432
0.000737875
0.000757866
0.000778456
0.000799675
0.000821546
0.000844083
0.000867281
0.00089114
0.000915658
0.000940823
0.000966619
0.000993039
0.00102007
0.00104769
0.00107589
0.00110465
0.00113396
0.00116381
0.00119417
0.00122503
0.00125638
0.0012882
0.00132048
0.0013532
0.00138635
0.00141992
0.00145388
0.00148823
0.00152295
0.00155802
0.00159344
0.00162919
0.00166523
0.00170158
0.00173821
0.00177509
0.00181222
0.00184958
0.00188715
0.00192492
0.00196287
0.00200099
0.00203926
0.00207767
0.00211622
0.0021549
0.0021937
0.00223261
0.00227164
0.00231078
0.00235002
0.00238939
0.00242888
0.00246855
0.00250844
0.00254862
0.00258912
0.00262997
0.00267115
0.00271258
0.00275424
0.00279603
0.00283796
0.00287998
0.00292206
0.00296416
0.00300622
0.00304821
0.00309006
0.00313173
0.00317319
0.00321441
0.00325539
0.00329611
0.00333655
0.00337668
0.00341647
0.00345586
0.00349483
0.00353333
0.0035714
0.0036089
0.00364585
0.00368226
0.00371811
0.00375337
0.00378804
0.00382208
0.00385545
0.00388813
0.0039201
0.00395134
0.00398182
0.00401154
0.00404046
0.00406856
0.00409584
0.00412228
0.00414786
0.00417255
0.00419635
0.00421923
0.00424118
0.00426219
0.0042822
0.00430124
0.00431926
0.00433623
0.00435212
0.00436686
0.00438044
0.00439278
0.00440391
0.00441391
0.00442295
0.00443124
0.00443897
0.00444613
0.00445258
0.00445816
0.0044627
0.00446616
0.00446863
0.00447026
0.00447112
0.00447114
0.00447029
0.00446851
0.00446572
0.00446191
0.0044571
0.00445134
0.00444467
0.00443715
0.00442871
0.00441939
0.00440926
0.00439835
0.00438659
0.00437403
0.00436085
0.00434728
0.00433333
0.00431893
0.00430402
0.00428847
0.00427213
0.0042548
0.00423615
0.00421585
0.00419403
0.00417144
0.00414892
0.00412691
0.00410545
0.00408435
0.00406348
0.00404316
0.00402398
0.00400533
0.0039849
0.00395937
9.16622e-07
8.99259e-05
0.000203212
0.00029913
0.000377641
0.000441706
0.000494078
0.000537271
0.000573397
0.000604201
0.000631094
0.000655219
0.00067747
0.000698553
0.000718993
0.000739195
0.000759442
0.000779946
0.000800852
0.000822259
0.000844234
0.000866816
0.000890032
0.000913898
0.000938413
0.000963578
0.00098939
0.00101583
0.0010429
0.00107058
0.00109886
0.00112773
0.00115716
0.00118715
0.00121767
0.00124872
0.00128027
0.00131232
0.00134485
0.00137783
0.00141126
0.00144512
0.00147939
0.00151406
0.00154911
0.00158453
0.0016203
0.00165641
0.00169284
0.00172957
0.0017666
0.0018039
0.00184146
0.00187927
0.00191731
0.00195556
0.00199403
0.00203268
0.00207152
0.00211054
0.00214972
0.00218906
0.00222856
0.00226823
0.00230806
0.00234805
0.00238822
0.00242857
0.00246911
0.00250985
0.00255079
0.00259198
0.0026334
0.0026751
0.00271708
0.00275934
0.00280186
0.00284463
0.00288759
0.00293072
0.00297396
0.00301728
0.00306064
0.00310399
0.00314731
0.00319056
0.00323369
0.00327666
0.00331945
0.00336203
0.00340438
0.00344649
0.00348831
0.00352983
0.00357102
0.00361183
0.00365223
0.00369218
0.00373171
0.00377071
0.00380918
0.00384711
0.0038845
0.0039213
0.0039575
0.00399307
0.00402798
0.0040622
0.0040957
0.00412846
0.00416048
0.0041917
0.00422213
0.00425174
0.00428051
0.00430841
0.00433544
0.00436159
0.00438679
0.00441109
0.00443443
0.00445682
0.00447821
0.0044986
0.00451797
0.00453629
0.00455354
0.00456969
0.00458474
0.00459866
0.00461148
0.00462323
0.00463401
0.00464389
0.00465296
0.00466128
0.00466879
0.00467544
0.00468115
0.0046859
0.00468971
0.00469265
0.00469474
0.00469595
0.00469626
0.00469564
0.00469404
0.00469151
0.00468803
0.00468364
0.00467835
0.00467217
0.00466512
0.00465722
0.00464851
0.00463899
0.00462863
0.00461749
0.0046057
0.00459335
0.00458049
0.00456708
0.0045531
0.00453845
0.00452302
0.00450665
0.00448913
0.00447034
0.00445032
0.00442949
0.00440835
0.00438727
0.00436639
0.00434564
0.00432506
0.00430484
0.00428526
0.00426603
0.00424581
0.00422224
9.91398e-07
9.34716e-05
0.00021163
0.000312817
0.000396458
0.000465351
0.000522165
0.000569391
0.000609143
0.000643177
0.000672935
0.000699585
0.000724065
0.000747111
0.000769296
0.000791054
0.000812712
0.000834505
0.000856605
0.000879132
0.000902167
0.000925759
0.000949949
0.000974752
0.00100017
0.00102621
0.00105288
0.00108015
0.001108
0.00113643
0.00116545
0.00119503
0.00122516
0.00125582
0.00128701
0.00131869
0.00135087
0.00138351
0.00141659
0.00145011
0.00148406
0.0015184
0.00155312
0.00158821
0.00162366
0.00165944
0.00169555
0.00173197
0.00176869
0.00180568
0.00184295
0.00188046
0.00191822
0.00195621
0.00199441
0.00203283
0.00207144
0.00211025
0.00214926
0.00218844
0.00222782
0.00226737
0.00230713
0.00234707
0.00238722
0.00242758
0.00246816
0.00250898
0.00255004
0.00259136
0.00263293
0.00267478
0.00271691
0.00275932
0.002802
0.00284495
0.00288816
0.0029316
0.00297524
0.00301905
0.003063
0.00310704
0.00315114
0.00319527
0.00323938
0.00328346
0.00332746
0.00337134
0.00341509
0.00345866
0.00350205
0.00354521
0.00358812
0.00363075
0.00367307
0.00371503
0.00375663
0.00379779
0.00383857
0.00387886
0.00391864
0.0039579
0.00399662
0.00403478
0.00407235
0.00410928
0.00414557
0.00418118
0.00421607
0.00425024
0.00428364
0.00431626
0.00434808
0.00437907
0.00440921
0.00443849
0.00446688
0.00449438
0.00452093
0.00454655
0.00457121
0.00459491
0.00461759
0.00463927
0.00465992
0.00467953
0.00469809
0.00471557
0.00473198
0.00474731
0.0047616
0.00477486
0.00478712
0.00479843
0.00480884
0.00481836
0.00482703
0.0048348
0.00484168
0.00484764
0.0048527
0.00485687
0.00486017
0.00486257
0.00486407
0.00486465
0.00486431
0.00486307
0.00486093
0.00485792
0.00485404
0.0048493
0.00484371
0.0048373
0.00483007
0.00482204
0.0048132
0.00480361
0.00479332
0.0047824
0.00477089
0.00475878
0.00474604
0.00473262
0.00471842
0.00470335
0.00468726
0.00467008
0.00465183
0.00463278
0.00461323
0.00459345
0.0045736
0.00455373
0.00453392
0.00451434
0.00449517
0.00447625
0.00445677
0.00443506
1.05009e-06
9.59978e-05
0.000217826
0.000323299
0.00041132
0.000484462
0.000545276
0.000596192
0.000639305
0.000676363
0.000708813
0.000737841
0.000764406
0.000789272
0.000813041
0.000836179
0.000859043
0.000881892
0.000904927
0.000928284
0.000952067
0.000976317
0.00100108
0.00102639
0.00105228
0.00107878
0.00110586
0.0011335
0.0011617
0.00119044
0.00121972
0.00124952
0.00127981
0.0013106
0.00134186
0.00137358
0.00140574
0.00143832
0.00147133
0.00150474
0.00153855
0.0015727
0.00160718
0.001642
0.00167712
0.00171255
0.00174826
0.00178425
0.00182051
0.00185701
0.00189376
0.00193074
0.00196794
0.00200535
0.00204298
0.00208082
0.00211886
0.0021571
0.00219556
0.00223421
0.00227309
0.00231218
0.00235151
0.00239107
0.00243089
0.00247097
0.00251133
0.00255198
0.00259292
0.00263418
0.00267575
0.00271764
0.00275985
0.00280237
0.0028452
0.00288833
0.00293174
0.00297541
0.0030193
0.00306341
0.00310769
0.00315211
0.00319664
0.00324126
0.00328591
0.00333058
0.00337522
0.00341981
0.00346432
0.00350871
0.00355295
0.00359701
0.00364086
0.00368447
0.00372781
0.00377083
0.00381352
0.00385581
0.00389775
0.00393923
0.00398024
0.00402075
0.00406074
0.00410018
0.00413904
0.00417729
0.0042149
0.00425184
0.00428807
0.00432358
0.00435833
0.0043923
0.00442547
0.00445781
0.0044893
0.00451991
0.00454963
0.00457845
0.00460631
0.00463324
0.00465919
0.00468418
0.00470813
0.00473109
0.00475301
0.00477388
0.00479371
0.00481247
0.00483019
0.00484685
0.00486249
0.00487712
0.00489075
0.00490342
0.0049151
0.00492586
0.00493571
0.00494466
0.00495271
0.00495986
0.00496613
0.00497151
0.00497601
0.00497962
0.00498235
0.00498419
0.00498515
0.00498524
0.00498448
0.00498288
0.00498045
0.00497719
0.00497312
0.00496824
0.00496257
0.00495612
0.0049489
0.00494094
0.00493228
0.00492295
0.004913
0.0049024
0.00489116
0.00487922
0.00486653
0.00485299
0.00483854
0.00482311
0.00480671
0.00478952
0.00477172
0.00475351
0.00473504
0.00471641
0.00469776
0.00467923
0.00466096
0.00464287
0.00462443
0.00460449
1.09302e-06
9.76171e-05
0.000222009
0.000330812
0.000422468
0.000499234
0.000563555
0.000617763
0.000663904
0.000703708
0.000738611
0.000769804
0.000798255
0.000824743
0.000849896
0.0008742
0.00089804
0.000921664
0.000945307
0.000969172
0.000993381
0.00101799
0.00104302
0.00106854
0.00109454
0.00112104
0.00114805
0.00117556
0.00120356
0.00123205
0.00126102
0.00129044
0.0013203
0.00135059
0.0013813
0.00141241
0.00144389
0.00147575
0.00150796
0.00154053
0.00157347
0.00160669
0.00164017
0.00167393
0.00170796
0.00174224
0.00177676
0.00181153
0.00184652
0.00188175
0.00191719
0.00195284
0.00198871
0.00202479
0.00206109
0.00209761
0.00213435
0.00217133
0.00220855