/*--------------------------------*- C++ -*----------------------------------*\
  =========                 |
  \\      /  F ield         | OpenFOAM: The Open Source CFD Toolbox
   \\    /   O peration     | Website:  https://openfoam.org
    \\  /    A nd           | Version:  7
     \\/     M anipulation  |
\*---------------------------------------------------------------------------*/
FoamFile
{
    version     2.0;
    format      ascii;
    class       volScalarField;
    location    "700";
    object      p;
}
// * * * * * * * * * * * * * * * * * * * * * * * * * * * * * * * * * * * * * //

dimensions      [0 2 -2 0 0 0 0];

internalField   nonuniform List<scalar> 
48900
(
-2.20423
-2.51757
-3.53687
-4.14449
-4.40989
-4.56229
-4.68737
-4.80929
-4.93019
-5.0481
-5.16245
-5.27409
-5.38495
-5.49714
-5.61387
-5.73984
-5.88334
-6.06514
-2.74166
-3.19744
-3.59799
-4.07477
-4.33832
-4.51001
-4.64967
-4.7793
-4.90391
-5.02375
-5.13935
-5.25205
-5.3637
-5.47657
-5.59368
-5.71925
-5.85985
-6.02388
-2.78402
-3.20527
-3.67998
-4.07764
-4.33002
-4.50374
-4.64582
-4.77577
-4.89943
-5.0179
-5.13208
-5.2433
-5.35335
-5.46428
-5.57863
-5.69952
-5.83003
-5.96503
-3.00077
-3.30665
-3.71662
-4.07403
-4.31924
-4.49489
-4.6393
-4.76993
-4.89317
-5.01086
-5.12417
-5.23441
-5.34312
-5.45198
-5.56285
-5.67736
-5.79518
-5.9062
-3.17298
-3.38847
-3.76201
-4.08083
-4.31543
-4.49037
-4.63562
-4.76626
-4.88869
-5.00522
-5.11722
-5.22595
-5.33272
-5.43883
-5.54539
-5.65269
-5.75833
-5.85225
-3.32828
-3.4784
-3.80602
-4.09162
-4.31467
-4.48747
-4.63268
-4.76298
-4.88449
-4.99978
-5.11033
-5.21734
-5.32187
-5.42485
-5.5267
-5.6268
-5.7219
-5.80398
-3.46775
-3.57067
-3.85165
-4.10652
-4.31668
-4.48567
-4.62978
-4.75926
-4.87963
-4.99351
-5.10244
-5.20748
-5.30951
-5.40905
-5.50606
-5.59936
-5.68578
-5.75957
-3.59326
-3.66281
-3.9
-4.12603
-4.32192
-4.48536
-4.62712
-4.75506
-4.8739
-4.98611
-5.09315
-5.19598
-5.29523
-5.39114
-5.48335
-5.57051
-5.64994
-5.71779
-3.70637
-3.75241
-3.95066
-4.14997
-4.33072
-4.48703
-4.62519
-4.75075
-4.86754
-4.9777
-5.08254
-5.18287
-5.27911
-5.37129
-5.45889
-5.54063
-5.61444
-5.67792
-3.80832
-3.83787
-4.00271
-4.17758
-4.34293
-4.49094
-4.62435
-4.74673
-4.86089
-4.96858
-5.07088
-5.16842
-5.26146
-5.3499
-5.43316
-5.51017
-5.57946
-5.63959
-3.90011
-3.91821
-4.05506
-4.20787
-4.35808
-4.49701
-4.62477
-4.74322
-4.85421
-4.95902
-5.05847
-5.15298
-5.2427
-5.32745
-5.40668
-5.47959
-5.54516
-5.60263
-3.97317
-3.98981
-4.1045
-4.23845
-4.37476
-4.5046
-4.62631
-4.74042
-4.84792
-4.94962
-5.04606
-5.13752
-5.224
-5.30531
-5.381
-5.45046
-5.51307
-5.56842
-4.04323
-4.05036
-4.14828
-4.26691
-4.39125
-4.5127
-4.62854
-4.73829
-4.84228
-4.9409
-5.03442
-5.12298
-5.20652
-5.28482
-5.35752
-5.42419
-5.48445
-5.53813
-4.11366
-4.11341
-4.19571
-4.29906
-4.41079
-4.52285
-4.63177
-4.73625
-4.83595
-4.93082
-5.02088
-5.10608
-5.1863
-5.26133
-5.33091
-5.39476
-5.45269
-5.50471
-4.18131
-4.17647
-4.24483
-4.33366
-4.43269
-4.5347
-4.63584
-4.73419
-4.82883
-4.9193
-5.00534
-5.08675
-5.16335
-5.23493
-5.30132
-5.36237
-5.41804
-5.46841
-4.24182
-4.23595
-4.29251
-4.3683
-4.45525
-4.54713
-4.64002
-4.73163
-4.82061
-4.90615
-4.98774
-5.06504
-5.13782
-5.20587
-5.26909
-5.32743
-5.38091
-5.42969
-4.28889
-4.28668
-4.33398
-4.39895
-4.47531
-4.5578
-4.64269
-4.72751
-4.81064
-4.89103
-4.96799
-5.04109
-5.11003
-5.17462
-5.23481
-5.29057
-5.342
-5.38925
-4.31301
-4.32109
-4.36206
-4.41929
-4.48769
-4.56273
-4.64092
-4.7198
-4.79764
-4.87327
-4.94592
-5.01508
-5.08046
-5.1419
-5.19932
-5.25277
-5.30234
-5.34818
-4.29828
-4.32738
-4.36582
-4.41977
-4.48449
-4.55573
-4.63016
-4.70536
-4.77963
-4.85183
-4.92121
-4.98731
-5.04985
-5.10872
-5.16391
-5.21545
-5.26347
-5.30812
-4.24729
-4.29143
-4.33303
-4.39055
-4.45845
-4.53204
-4.60782
-4.68347
-4.75747
-4.82884
-4.89705
-4.96177
-5.02287
-5.08033
-5.1342
-5.18459
-5.23163
-5.27548
-4.1758
-4.23372
-4.28281
-4.34889
-4.42474
-4.50475
-4.58525
-4.66407
-4.73998
-4.81237
-4.88095
-4.94563
-5.00644
-5.06348
-5.11688
-5.1668
-5.21342
-5.25692
-4.08641
-4.15832
-4.21968
-4.29915
-4.38693
-4.47632
-4.56355
-4.6469
-4.7257
-4.79981
-4.86932
-4.93443
-4.99536
-5.05232
-5.10555
-5.15526
-5.20166
-5.24496
-3.98171
-4.06928
-4.1487
-4.24635
-4.34948
-4.4502
-4.54516
-4.63346
-4.7153
-4.79118
-4.86169
-4.92731
-4.98844
-5.04545
-5.09861
-5.1482
-5.19447
-5.23764
-3.86324
-3.9694
-4.07416
-4.19451
-4.31575
-4.42877
-4.53149
-4.6244
-4.70883
-4.78615
-4.8574
-4.92338
-4.98466
-5.04167
-5.09477
-5.14426
-5.19041
-5.23347
-3.73234
-3.86079
-3.99997
-4.14676
-4.28812
-4.41333
-4.52306
-4.6196
-4.70581
-4.78395
-4.85555
-4.92165
-4.98293
-5.03987
-5.09286
-5.14222
-5.18824
-5.23119
-3.59157
-3.74553
-3.92957
-4.10541
-4.26771
-4.40402
-4.51932
-4.61814
-4.70515
-4.78344
-4.85499
-4.92099
-4.98217
-5.03901
-5.09188
-5.1411
-5.18699
-5.22985
-3.44509
-3.62663
-3.86401
-4.07131
-4.25382
-4.39962
-4.51885
-4.61868
-4.70563
-4.78361
-4.85491
-4.92075
-4.98184
-5.03862
-5.09143
-5.14057
-5.18634
-5.22915
-3.28682
-3.5206
-3.8021
-4.04241
-4.24441
-4.39878
-4.52089
-4.62092
-4.70739
-4.78489
-4.8559
-4.92162
-4.9827
-5.0395
-5.09233
-5.14141
-5.18706
-5.22974
-3.69393
-3.31202
-3.72354
-4.024
-4.24568
-4.40771
-4.53068
-4.62905
-4.7135
-4.78939
-4.85932
-4.9244
-4.9851
-5.0417
-5.09438
-5.1433
-5.18867
-5.23092
2.98661
-4.11767
-3.89788
-4.09758
-4.2823
-4.42812
-4.54046
-4.63191
-4.71292
-4.78773
-4.85796
-4.92397
-4.98582
-5.04352
-5.09717
-5.14686
-5.1927
-5.23484
-6.357
-6.35638
-6.35649
-6.35718
-6.35841
-6.36005
-6.36194
-6.36401
-6.36621
-6.36852
-6.37095
-6.37351
-6.37624
-6.37919
-6.38236
-6.38581
-6.38955
-6.39363
-6.39806
-6.40289
-6.40814
-6.41385
-6.42005
-6.42677
-6.43404
-6.4419
-6.45038
-6.4595
-6.4693
-6.47979
-6.491
-6.50296
-6.51566
-6.52913
-6.54336
-6.55836
-6.57413
-6.59065
-6.60793
-6.62594
-6.64468
-6.66411
-6.68423
-6.705
-6.72638
-6.74836
-6.77089
-6.79393
-6.81743
-6.84135
-6.86563
-6.89022
-6.91504
-6.94009
-6.96517
-6.99029
-7.0154
-7.04033
-7.06492
-7.08928
-7.11314
-7.13641
-7.15898
-7.18071
-7.20149
-7.22116
-7.23958
-7.25656
-7.27191
-7.28548
-7.29714
-7.30686
-7.31519
-7.32265
-7.32842
-7.33143
-7.32604
-7.31049
-7.30103
-7.29035
-7.27555
-7.27302
-7.24286
-7.19909
-7.16014
-7.12023
-7.07825
-7.0369
-6.9848
-6.93472
-6.85109
-6.74476
-6.65663
-6.59123
-6.51591
-6.43266
-6.30693
-6.17229
-6.05535
-5.94381
-5.79326
-5.63014
-5.48002
-5.34995
-5.15981
-4.97936
-4.7962
-4.60697
-4.41068
-4.20752
-3.99716
-3.78015
-3.55621
-3.32568
-3.08853
-2.84531
-2.59582
-2.34038
-2.07942
-1.81282
-1.541
-1.26418
-0.982579
-0.696471
-0.40612
-0.111823
0.186349
0.487704
0.792334
1.09939
1.40936
1.72243
2.04946
2.36491
2.64866
2.95338
3.26471
3.58006
3.88614
4.20958
4.52434
4.82223
5.13195
5.4402
5.73671
6.02805
6.33158
6.61658
6.90548
7.18679
7.45953
7.73341
8.00015
8.26529
8.51858
8.76877
9.01623
9.25465
9.48617
9.71279
9.93338
10.1475
10.355
10.5557
10.7493
10.9352
11.1111
11.2762
11.463
11.6319
11.7883
11.9409
12.0894
12.2325
12.3704
12.5112
12.6115
12.7378
12.8548
12.9468
-6.356
-6.35654
-6.35671
-6.35744
-6.35831
-6.35927
-6.36035
-6.36155
-6.36292
-6.36447
-6.36621
-6.36814
-6.3703
-6.37268
-6.37531
-6.37821
-6.38141
-6.38492
-6.38878
-6.39303
-6.3977
-6.40281
-6.40842
-6.41454
-6.42123
-6.42852
-6.43643
-6.445
-6.45425
-6.46422
-6.47491
-6.48636
-6.49857
-6.51155
-6.52531
-6.53983
-6.55513
-6.5712
-6.58802
-6.60559
-6.62388
-6.64289
-6.66257
-6.68291
-6.70389
-6.72545
-6.74759
-6.77022
-6.79335
-6.81689
-6.84082
-6.86506
-6.88956
-6.91425
-6.93904
-6.9639
-6.98869
-7.01335
-7.03777
-7.06185
-7.08545
-7.10846
-7.13073
-7.15211
-7.17244
-7.19155
-7.20932
-7.22562
-7.2404
-7.25372
-7.26566
-7.27634
-7.28536
-7.29204
-7.29569
-7.29577
-7.29331
-7.28931
-7.27936
-7.26561
-7.24995
-7.22155
-7.19722
-7.1743
-7.1427
-7.10415
-7.0592
-7.00673
-6.94671
-6.87429
-6.81193
-6.75476
-6.68259
-6.58589
-6.4796
-6.36559
-6.26673
-6.16299
-6.03849
-5.9012
-5.77131
-5.63778
-5.48792
-5.31966
-5.16444
-4.99139
-4.81129
-4.62419
-4.43008
-4.22895
-4.02079
-3.80578
-3.58395
-3.35547
-3.12049
-2.87922
-2.63176
-2.37831
-2.1193
-1.85461
-1.58467
-1.30957
-1.02978
-0.745342
-0.456535
-0.163555
0.133441
0.434113
0.738422
1.04539
1.3542
1.66187
1.96335
2.27423
2.58857
2.89824
3.2101
3.52213
3.83574
4.14454
4.45368
4.7659
5.06962
5.37177
5.67383
5.97306
6.26386
6.55845
6.84308
7.12443
7.40111
7.67304
7.9423
8.20453
8.46206
8.71331
8.95918
9.19909
9.43223
9.65923
9.88027
10.095
10.3031
10.5045
10.6987
10.8852
11.0652
11.2497
11.4194
11.584
11.7426
11.8957
12.0436
12.1858
12.3244
12.4535
12.592
12.7063
12.8186
12.9657
-6.35167
-6.35436
-6.35498
-6.35584
-6.35665
-6.35738
-6.35808
-6.3588
-6.35961
-6.36058
-6.36173
-6.36311
-6.36472
-6.3666
-6.36875
-6.3712
-6.37396
-6.37707
-6.38056
-6.38444
-6.38875
-6.39354
-6.39883
-6.40466
-6.41106
-6.41805
-6.42569
-6.43398
-6.44295
-6.45263
-6.46303
-6.47417
-6.48606
-6.49871
-6.51212
-6.52629
-6.5412
-6.55688
-6.5733
-6.59045
-6.60832
-6.62688
-6.64613
-6.66602
-6.68654
-6.70766
-6.72933
-6.75152
-6.7742
-6.7973
-6.82079
-6.84461
-6.86869
-6.89298
-6.9174
-6.94188
-6.96633
-6.99066
-7.01478
-7.03857
-7.06191
-7.08471
-7.1068
-7.12806
-7.14834
-7.16751
-7.18547
-7.20212
-7.21746
-7.23149
-7.24425
-7.25562
-7.26516
-7.27225
-7.2761
-7.27599
-7.27193
-7.26517
-7.25652
-7.24542
-7.23092
-7.21073
-7.18637
-7.15892
-7.12579
-7.08656
-7.04133
-6.99034
-6.93304
-6.87016
-6.80756
-6.74321
-6.6683
-6.57785
-6.47583
-6.36978
-6.26655
-6.15939
-6.0402
-5.9115
-5.77982
-5.64388
-5.49883
-5.3427
-5.17982
-5.00875
-4.83095
-4.64613
-4.45422
-4.25529
-4.04935
-3.83653
-3.61695
-3.39066
-3.15787
-2.91874
-2.67341
-2.42208
-2.16514
-1.90248
-1.63453
-1.36136
-1.08351
-0.800929
-0.513912
-0.222662
0.0727092
0.371855
0.674651
0.980218
1.28745
1.59462
1.90153
2.21057
2.51671
2.8247
3.13423
3.4468
3.75999
4.07079
4.3794
4.68834
4.99392
5.29566
5.59667
5.89606
6.18937
6.48111
6.76761
7.04943
7.32754
7.60036
7.8693
8.1326
8.39066
8.64332
8.89005
9.13068
9.365
9.59291
9.81471
10.0303
10.2395
10.4422
10.6383
10.8277
11.0138
11.204
11.3724
11.5355
11.6959
11.8501
11.9979
12.1405
12.2777
12.4041
12.5285
12.6572
12.7826
12.9356
-6.34497
-6.34962
-6.35142
-6.35294
-6.35412
-6.35503
-6.35576
-6.3564
-6.35705
-6.35779
-6.35868
-6.35976
-6.36109
-6.36269
-6.36458
-6.36679
-6.36934
-6.37225
-6.37556
-6.3793
-6.38349
-6.38817
-6.39337
-6.39911
-6.40542
-6.41234
-6.41989
-6.42809
-6.43697
-6.44653
-6.45681
-6.46781
-6.47954
-6.49201
-6.50522
-6.51917
-6.53386
-6.54928
-6.56543
-6.5823
-6.59987
-6.61812
-6.63705
-6.65661
-6.6768
-6.69757
-6.71891
-6.74077
-6.7631
-6.78588
-6.80906
-6.83256
-6.85635
-6.88035
-6.9045
-6.92873
-6.95295
-6.97706
-7.00099
-7.02463
-7.04784
-7.07054
-7.09262
-7.11391
-7.13432
-7.15371
-7.17199
-7.18907
-7.20488
-7.2193
-7.23229
-7.24358
-7.25288
-7.25977
-7.26379
-7.26454
-7.26199
-7.25645
-7.24811
-7.23669
-7.22147
-7.2017
-7.17775
-7.14967
-7.11662
-7.07825
-7.03437
-6.98505
-6.93067
-6.8713
-6.80785
-6.73929
-6.66253
-6.5753
-6.4793
-6.37799
-6.27371
-6.16438
-6.04698
-5.92175
-5.79131
-5.6551
-5.51064
-5.35703
-5.19561
-5.02658
-4.85043
-4.6672
-4.47689
-4.27952
-4.07526
-3.86406
-3.64608
-3.42139
-3.19024
-2.9527
-2.70898
-2.45918
-2.20381
-1.94269
-1.67626
-1.40452
-1.12816
-0.846998
-0.561445
-0.271723
0.0221158
0.319529
0.620221
0.923328
1.2279
1.53265
1.83804
2.14524
2.45304
2.76167
3.07116
3.38228
3.69383
4.00342
4.3118
4.61982
4.92516
5.22711
5.52776
5.82647
6.1202
6.41102
6.69733
6.97954
7.25811
7.53176
7.80056
8.06385
8.32261
8.57575
8.82274
9.06383
9.29947
9.52866
9.7516
9.96842
10.1788
10.3828
10.5802
10.7719
10.9598
11.1458
11.3175
11.4827
11.6447
11.8003
11.9494
12.0936
12.2318
12.3611
12.4844
12.6101
12.7414
12.8886
-6.33736
-6.3433
-6.34653
-6.34901
-6.35087
-6.35224
-6.35329
-6.35413
-6.35489
-6.35568
-6.35656
-6.35762
-6.35889
-6.36043
-6.36227
-6.36444
-6.36696
-6.36987
-6.37319
-6.37695
-6.38118
-6.38591
-6.39116
-6.39696
-6.40333
-6.41031
-6.4179
-6.42614
-6.43504
-6.44462
-6.45489
-6.46586
-6.47754
-6.48994
-6.50307
-6.51691
-6.53147
-6.54675
-6.56274
-6.57943
-6.59681
-6.61487
-6.63358
-6.65293
-6.6729
-6.69346
-6.71458
-6.73622
-6.75833
-6.78091
-6.80388
-6.82719
-6.8508
-6.87463
-6.89864
-6.92274
-6.94683
-6.97087
-6.99473
-7.01833
-7.04156
-7.06429
-7.08643
-7.10788
-7.12851
-7.14818
-7.16681
-7.18427
-7.20046
-7.21524
-7.22838
-7.23967
-7.24887
-7.25563
-7.25969
-7.26079
-7.25894
-7.25409
-7.24604
-7.23447
-7.21902
-7.19939
-7.17563
-7.14769
-7.11521
-7.07779
-7.03513
-6.98711
-6.93373
-6.87516
-6.81139
-6.74173
-6.66495
-6.57992
-6.48723
-6.38827
-6.28418
-6.17459
-6.05816
-5.93454
-5.80459
-5.66825
-5.52434
-5.37212
-5.21197
-5.04425
-4.86931
-4.68727
-4.49814
-4.3019
-4.09875
-3.88876
-3.67193
-3.44843
-3.2184
-2.98202
-2.73947
-2.49086
-2.23659
-1.97659
-1.7113
-1.4407
-1.16543
-0.885454
-0.601126
-0.312592
-0.0201274
0.275733
0.574748
0.875892
1.17864
1.48228
1.78737
2.09468
2.40292
2.71166
3.02091
3.33115
3.6413
3.95011
4.25816
4.5655
4.87059
5.1727
5.47316
5.77132
6.06507
6.35541
6.64156
6.92403
7.20278
7.47685
7.7457
8.00922
8.26824
8.52178
8.76924
9.01085
9.24721
9.47735
9.70127
9.91901
10.1303
10.3353
10.5337
10.7265
10.9147
11.098
11.2715
11.4388
11.6017
11.7585
11.9087
12.0539
12.1933
12.3249
12.451
12.5752
12.7027
12.8371
-6.33012
-6.33664
-6.34124
-6.34476
-6.34741
-6.34941
-6.35093
-6.35215
-6.35321
-6.35423
-6.3553
-6.35651
-6.35791
-6.35957
-6.36152
-6.3638
-6.36644
-6.36948
-6.37293
-6.37684
-6.38122
-6.38609
-6.39149
-6.39744
-6.40396
-6.41107
-6.41879
-6.42714
-6.43614
-6.44581
-6.45614
-6.46716
-6.47888
-6.49129
-6.5044
-6.51822
-6.53274
-6.54796
-6.56388
-6.58049
-6.59778
-6.61574
-6.63434
-6.65358
-6.67343
-6.69386
-6.71486
-6.73639
-6.75841
-6.78088
-6.80375
-6.82698
-6.85053
-6.87431
-6.89827
-6.92234
-6.94644
-6.9705
-6.99441
-7.01808
-7.04141
-7.06428
-7.08662
-7.10827
-7.12914
-7.1491
-7.16804
-7.18583
-7.20234
-7.21736
-7.23071
-7.24211
-7.25133
-7.25808
-7.26217
-7.26345
-7.2618
-7.25706
-7.2491
-7.23759
-7.22226
-7.20298
-7.17961
-7.152
-7.11992
-7.08305
-7.04111
-6.99384
-6.94099
-6.88274
-6.8189
-6.749
-6.67243
-6.58866
-6.4978
-6.40036
-6.29701
-6.18769
-6.07166
-5.94891
-5.81929
-5.68297
-5.5392
-5.38766
-5.22841
-5.06168
-4.88762
-4.70641
-4.51804
-4.32261
-4.12027
-3.91103
-3.69497
-3.47231
-3.2431
-3.00756
-2.76576
-2.51796
-2.2646
-2.00539
-1.74093
-1.47113
-1.19673
-0.917614
-0.634222
-0.346679
-0.0553195
0.23935
0.537136
0.837129
1.13891
1.44219
1.74731
2.05431
2.3625
2.67122
2.98029
3.2899
3.59925
3.90768
4.21545
4.52226
4.82701
5.12926
5.42957
5.72723
6.02098
6.31115
6.59734
6.87998
7.15865
7.43279
7.70184
7.96568
8.22489
8.47866
8.72662
8.96878
9.20562
9.43643
9.66104
9.87949
10.0915
10.2972
10.4964
10.6897
10.8778
11.06
11.2345
11.403
11.5666
11.7241
11.8753
12.0211
12.161
12.2942
12.4219
12.5453
12.6676
12.7912
-6.32419
-6.3307
-6.33645
-6.34091
-6.34434
-6.34699
-6.34905
-6.35073
-6.35219
-6.35355
-6.35493
-6.3564
-6.35806
-6.35995
-6.36212
-6.36462
-6.36748
-6.37073
-6.3744
-6.37851
-6.38311
-6.38819
-6.39379
-6.39994
-6.40665
-6.41394
-6.42184
-6.43035
-6.4395
-6.44929
-6.45974
-6.47086
-6.48265
-6.49513
-6.50829
-6.52215
-6.53669
-6.55192
-6.56785
-6.58445
-6.60172
-6.61964
-6.63822
-6.65744
-6.67725
-6.69765
-6.71862
-6.74013
-6.76214
-6.7846
-6.80748
-6.83073
-6.85429
-6.87813
-6.90215
-6.92629
-6.95048
-6.97464
-6.99868
-7.02251
-7.046
-7.06908
-7.09164
-7.11353
-7.13469
-7.15493
-7.17415
-7.19223
-7.20897
-7.22416
-7.23765
-7.24917
-7.2585
-7.26538
-7.26959
-7.27099
-7.26946
-7.26486
-7.25698
-7.24555
-7.23044
-7.21142
-7.18825
-7.16093
-7.12905
-7.09241
-7.05081
-7.00388
-6.9514
-6.89336
-6.82962
-6.75974
-6.68339
-6.6003
-6.51051
-6.41405
-6.31128
-6.20223
-6.08659
-5.96412
-5.8347
-5.69834
-5.5547
-5.40347
-5.24477
-5.07865
-4.90513
-4.72438
-4.53656
-4.34171
-4.13983
-3.9311
-3.71555
-3.49342
-3.26481
-3.02982
-2.7886
-2.54137
-2.2885
-2.02993
-1.76603
-1.4969
-1.22311
-0.944744
-0.661962
-0.375241
-0.0847471
0.209085
0.506042
0.805298
1.1066
1.40982
1.71472
2.02161
2.32955
2.63816
2.9471
3.25639
3.56534
3.87347
4.181
4.48735
4.79198
5.09425
5.39428
5.69167
5.98537
6.27556
6.56185
6.84456
7.1232
7.39735
7.66663
7.93085
8.19019
8.44409
8.69241
8.93504
9.17232
9.40358
9.62871
9.84768
10.0603
10.2665
10.4662
10.66
10.848
11.0298
11.2049
11.3741
11.5381
11.6961
11.848
11.9941
12.1341
12.2678
12.3957
12.5177
12.6354
12.7513
-6.32016
-6.32621
-6.33281
-6.33803
-6.34215
-6.3454
-6.34799
-6.35015
-6.35203
-6.35378
-6.35551
-6.35732
-6.35928
-6.36146
-6.36391
-6.36668
-6.3698
-6.37331
-6.37723
-6.3816
-6.38643
-6.39176
-6.39759
-6.40396
-6.41089
-6.41839
-6.42647
-6.43517
-6.44448
-6.45442
-6.46502
-6.47626
-6.48817
-6.50075
-6.51401
-6.52794
-6.54256
-6.55785
-6.57383
-6.59047
-6.60779
-6.62576
-6.64437
-6.66362
-6.68349
-6.70395
-6.72496
-6.74652
-6.76861
-6.79113
-6.81409
-6.83745
-6.86113
-6.88506
-6.90922
-6.93352
-6.95788
-6.98222
-7.00646
-7.03047
-7.05423
-7.07755
-7.10035
-7.12254
-7.14394
-7.16443
-7.18392
-7.20219
-7.21909
-7.23447
-7.24806
-7.25967
-7.2691
-7.27611
-7.28048
-7.28207
-7.28076
-7.27629
-7.2685
-7.2572
-7.24228
-7.22335
-7.20043
-7.17309
-7.1413
-7.10476
-7.06318
-7.01636
-6.96406
-6.90615
-6.84241
-6.77267
-6.69652
-6.61381
-6.52453
-6.42867
-6.32632
-6.21736
-6.1019
-5.97955
-5.8502
-5.71379
-5.57007
-5.41896
-5.26052
-5.09469
-4.92152
-4.74114
-4.55355
-4.35897
-4.15746
-3.94901
-3.73383
-3.51204
-3.28371
-3.04907
-2.8082
-2.56137
-2.30892
-2.05073
-1.78726
-1.51859
-1.2453
-0.967392
-0.685136
-0.399009
-0.109096
0.184067
0.48039
0.779168
1.08021
1.38327
1.68827
1.99494
2.30269
2.61106
2.91986
3.22892
3.53764
3.84561
4.15286
4.45898
4.76347
5.06567
5.3655
5.66268
5.95632
6.24656
6.53304
6.81591
7.09442
7.36863
7.63809
7.90251
8.1621
8.41616
8.66477
8.90783
9.14544
9.37704
9.60262
9.82199
10.035
10.2416
10.4417
10.6358
10.8238
11.0056
11.1812
11.3509
11.515
11.6733
11.8254
11.9717
12.1116
12.2451
12.3722
12.4925
12.6061
12.7166
-6.31834
-6.32359
-6.33073
-6.33651
-6.34116
-6.3449
-6.34797
-6.35056
-6.35285
-6.35498
-6.35707
-6.35921
-6.36149
-6.36398
-6.36672
-6.36978
-6.37317
-6.37694
-6.38113
-6.38575
-6.39082
-6.39639
-6.40245
-6.40905
-6.41619
-6.42389
-6.43217
-6.44105
-6.45054
-6.46066
-6.4714
-6.48279
-6.49484
-6.50754
-6.52092
-6.53496
-6.54968
-6.56508
-6.58115
-6.59789
-6.6153
-6.63335
-6.65207
-6.67142
-6.69138
-6.71195
-6.73309
-6.75477
-6.77697
-6.79964
-6.82277
-6.84628
-6.87014
-6.89427
-6.91863
-6.94315
-6.96774
-6.9923
-7.01677
-7.04108
-7.06508
-7.08867
-7.11176
-7.13416
-7.15583
-7.1766
-7.19628
-7.21478
-7.23183
-7.2473
-7.26101
-7.2727
-7.28221
-7.2893
-7.29382
-7.29552
-7.29438
-7.29004
-7.28245
-7.27127
-7.25637
-7.23757
-7.21466
-7.18733
-7.15546
-7.11887
-7.07724
-7.03038
-6.97799
-6.92018
-6.85646
-6.78664
-6.71059
-6.62804
-6.539
-6.44341
-6.34127
-6.23234
-6.1168
-5.99439
-5.86493
-5.72838
-5.58468
-5.43354
-5.27515
-5.10942
-4.9364
-4.75607
-4.56868
-4.37428
-4.17287
-3.9647
-3.74966
-3.52796
-3.29987
-3.06544
-2.82487
-2.57826
-2.326
-2.06813
-1.80497
-1.53658
-1.2637
-0.986172
-0.704201
-0.418505
-0.129028
0.163661
0.459422
0.757926
1.05884
1.36185
1.66666
1.97313
2.28064
2.5889
2.89761
3.20646
3.51491
3.82294
4.12995
4.43574
4.74011
5.04218
5.34191
5.63895
5.93262
6.22297
6.50955
6.79238
7.071
7.3452
7.61478
7.87942
8.13905
8.39338
8.64234
8.88568
9.12353
9.35545
9.58127
9.80105
10.0143
10.2212
10.4217
10.616
10.8042
10.986
11.1619
11.3319
11.4962
11.6546
11.8068
11.9529
12.0925
12.2253
12.3513
12.4697
12.5798
12.6863
-6.31876
-6.32301
-6.3304
-6.33651
-6.34152
-6.34563
-6.34907
-6.35202
-6.35466
-6.35713
-6.35954
-6.362
-6.36458
-6.36736
-6.37038
-6.3737
-6.37735
-6.38137
-6.38579
-6.39065
-6.39595
-6.40173
-6.40802
-6.41482
-6.42216
-6.43006
-6.43852
-6.44758
-6.45724
-6.46751
-6.47842
-6.48996
-6.50215
-6.51499
-6.52851
-6.54269
-6.55754
-6.57307
-6.58926
-6.60613
-6.62366
-6.64187
-6.66072
-6.6802
-6.70032
-6.72104
-6.74234
-6.76419
-6.78659
-6.80947
-6.83279
-6.85651
-6.8806
-6.90499
-6.92958
-6.95434
-6.97922
-7.00406
-7.0288
-7.05336
-7.07764
-7.10148
-7.12486
-7.14758
-7.16948
-7.19043
-7.21031
-7.22892
-7.24613
-7.26169
-7.2755
-7.28726
-7.29681
-7.30398
-7.30858
-7.31045
-7.30932
-7.3051
-7.29755
-7.28643
-7.2715
-7.25269
-7.2297
-7.20232
-7.17029
-7.13354
-7.09176
-7.04474
-6.99231
-6.93433
-6.87043
-6.80061
-6.72443
-6.64186
-6.55284
-6.45728
-6.35512
-6.24607
-6.13039
-6.00777
-5.87817
-5.74156
-5.59765
-5.44638
-5.28786
-5.122
-4.949
-4.76885
-4.58142
-4.38693
-4.18558
-3.97742
-3.76248
-3.54096
-3.313
-3.07861
-2.83821
-2.59173
-2.3397
-2.08196
-1.81906
-1.55093
-1.27831
-1.00096
-0.719439
-0.43408
-0.144979
0.14736
0.442916
0.741149
1.04197
1.34477
1.64942
1.95568
2.2631
2.57127
2.87974
3.18847
3.49675
3.8046
4.11145
4.41715
4.72115
5.02316
5.32277
5.61964
5.91327
6.20367
6.49031
6.77306
7.05157
7.32598
7.59563
7.86048
8.1202
8.37479
8.62411
8.86758
9.10561
9.33782
9.56386
9.78385
9.9974
10.2046
10.4054
10.5999
10.7882
10.9702
11.1463
11.3164
11.4807
11.6392
11.7913
11.9371
12.0761
12.2082
12.3328
12.4491
12.5562
12.6596
-6.3213
-6.32447
-6.33183
-6.33805
-6.34324
-6.34759
-6.35128
-6.3545
-6.35741
-6.36015
-6.36284
-6.36556
-6.36839
-6.37141
-6.37467
-6.37821
-6.38208
-6.38632
-6.39095
-6.396
-6.4015
-6.40748
-6.41395
-6.42093
-6.42844
-6.43651
-6.44514
-6.45436
-6.46418
-6.47461
-6.48566
-6.49735
-6.50969
-6.52268
-6.53634
-6.55066
-6.56567
-6.58134
-6.5977
-6.61472
-6.63242
-6.65077
-6.6698
-6.68948
-6.70977
-6.73067
-6.75217
-6.77425
-6.79686
-6.81996
-6.84352
-6.86751
-6.89186
-6.91651
-6.94138
-6.96642
-6.99159
-7.01667
-7.04173
-7.06656
-7.09108
-7.11518
-7.1388
-7.1617
-7.18381
-7.20495
-7.22495
-7.2437
-7.26099
-7.27661
-7.29048
-7.30226
-7.31182
-7.31905
-7.3237
-7.32554
-7.32444
-7.32021
-7.31263
-7.30142
-7.28648
-7.26755
-7.24435
-7.21683
-7.18454
-7.14757
-7.10547
-7.05822
-7.00553
-6.94722
-6.88316
-6.8131
-6.7368
-6.65416
-6.56485
-6.4691
-6.36684
-6.25768
-6.14177
-6.01887
-5.88902
-5.7521
-5.60795
-5.45645
-5.29786
-5.13187
-4.95874
-4.7785
-4.59109
-4.39658
-4.19524
-3.98699
-3.77202
-3.55059
-3.32263
-3.08839
-2.84795
-2.60169
-2.34979
-2.09219
-1.82952
-1.56152
-1.28906
-1.01206
-0.730799
-0.445708
-0.156915
0.135097
0.430453
0.728378
1.029
1.33165
1.63615
1.94224
2.24943
2.55734
2.86569
3.17421
3.48239
3.78999
4.09675
4.40215
4.70608
5.00788
5.30741
5.6041
5.89771
6.18808
6.47466
6.7575
7.03607
7.31042
7.58026
7.84509
8.10493
8.35954
8.60906
8.8527
9.09105
9.3234
9.54954
9.76979
9.98359
10.191
10.3921
10.5868
10.7752
10.9574
11.1336
11.3038
11.4681
11.6263
11.7784
11.9237
12.0621
12.1932
12.3163
12.4306
12.535
12.6357
-6.32571
-6.32778
-6.33489
-6.34103
-6.34624
-6.35068
-6.3545
-6.35788
-6.36097
-6.3639
-6.36678
-6.36969
-6.37272
-6.37592
-6.37936
-6.38308
-6.38713
-6.39153
-6.39632
-6.40154
-6.40719
-6.41332
-6.41993
-6.42705
-6.43471
-6.44292
-6.4517
-6.46106
-6.47102
-6.48159
-6.49279
-6.50463
-6.51711
-6.53025
-6.54407
-6.55855
-6.5737
-6.58953
-6.60605
-6.62324
-6.64112
-6.65967
-6.67888
-6.69874
-6.71924
-6.74038
-6.7621
-6.7844
-6.80724
-6.83061
-6.85442
-6.87868
-6.90328
-6.92818
-6.95334
-6.97866
-7.00403
-7.02946
-7.05474
-7.07983
-7.10457
-7.12892
-7.15267
-7.17574
-7.19791
-7.21918
-7.23925
-7.25806
-7.27534
-7.29102
-7.3048
-7.31653
-7.32606
-7.3332
-7.33781
-7.33951
-7.33834
-7.33396
-7.32617
-7.31489
-7.29975
-7.28058
-7.25719
-7.22926
-7.19674
-7.15946
-7.11699
-7.06936
-7.01633
-6.95767
-6.8932
-6.82281
-6.74628
-6.66332
-6.57382
-6.47791
-6.37527
-6.26582
-6.1496
-6.02648
-5.89635
-5.75912
-5.61466
-5.4629
-5.30411
-5.13805
-4.9647
-4.78432
-4.59669
-4.40213
-4.20075
-3.9925
-3.77757
-3.5562
-3.32828
-3.09407
-2.85368
-2.60735
-2.35566
-2.09828
-1.83574
-1.56801
-1.29587
-1.01912
-0.737998
-0.453207
-0.164865
0.126933
0.422099
0.719728
1.0201
1.32268
1.6269
1.9327
2.23965
2.54727
2.85538
3.1636
3.47177
3.77899
4.08552
4.39074
4.69444
4.99604
5.29531
5.59195
5.88542
6.17565
6.46227
6.74514
7.02364
7.29801
7.56785
7.83275
8.09285
8.34752
8.59696
8.84095
9.07932
9.31175
9.53809
9.75837
9.97241
10.1801
10.3813
10.5761
10.7647
10.947
11.1233
11.2935
11.4577
11.6158
11.7675
11.9124
12.05
12.1801
12.3016
12.414
12.5159
12.6142
-6.33166
-6.33268
-6.33938
-6.34527
-6.35035
-6.35473
-6.35857
-6.362
-6.36517
-6.3682
-6.37118
-6.37421
-6.37735
-6.38068
-6.38424
-6.38808
-6.39224
-6.39675
-6.40165
-6.40698
-6.41274
-6.41898
-6.4257
-6.43294
-6.44071
-6.44903
-6.45792
-6.4674
-6.47748
-6.48818
-6.49951
-6.51148
-6.52411
-6.5374
-6.55135
-6.56598
-6.58131
-6.5973
-6.61398
-6.63135
-6.64942
-6.66814
-6.68754
-6.70761
-6.72833
-6.74967
-6.77162
-6.79415
-6.81723
-6.84083
-6.86488
-6.88936
-6.9142
-6.93933
-6.96474
-6.99028
-7.01584
-7.04145
-7.0669
-7.09218
-7.11706
-7.14152
-7.16534
-7.18844
-7.21069
-7.23192
-7.25194
-7.27065
-7.28786
-7.30334
-7.31704
-7.32867
-7.33802
-7.34503
-7.34931
-7.3509
-7.34954
-7.34489
-7.33682
-7.32522
-7.30973
-7.29021
-7.26643
-7.23811
-7.20521
-7.1675
-7.12462
-7.07661
-7.02301
-6.96403
-6.89924
-6.82844
-6.75144
-6.66812
-6.57836
-6.48204
-6.37909
-6.26929
-6.15272
-6.02938
-5.89883
-5.76129
-5.61662
-5.4646
-5.30553
-5.13926
-4.9659
-4.78534
-4.59757
-4.40301
-4.20167
-3.99339
-3.77846
-3.55694
-3.32915
-3.09504
-2.85486
-2.60882
-2.35723
-2.10005
-1.8377
-1.57022
-1.29821
-1.02173
-0.741122
-0.456627
-0.168377
0.123165
0.417869
0.715208
1.01525
1.3175
1.62152
1.92687
2.23358
2.541
2.84871
3.15672
3.46446
3.77148
4.07776
4.38272
4.68605
4.98739
5.28639
5.58285
5.87617
6.1662
6.45281
6.73565
7.01417
7.2884
7.55814
7.82316
8.08324
8.33796
8.58746
8.83141
9.06994
9.30252
9.52909
9.74944
9.96357
10.1713
10.3726
10.5676
10.7564
10.9387
11.1151
11.2853
11.4494
11.6073
11.7584
11.9028
12.0397
12.1686
12.2887
12.3992
12.4989
12.5949
-6.3388
-6.33888
-6.34503
-6.35054
-6.35536
-6.35957
-6.3633
-6.36667
-6.36982
-6.37284
-6.37584
-6.3789
-6.38208
-6.38545
-6.38906
-6.39295
-6.39716
-6.40174
-6.4067
-6.41209
-6.41792
-6.42423
-6.43103
-6.43834
-6.44619
-6.4546
-6.46358
-6.47315
-6.48332
-6.49413
-6.50557
-6.51766
-6.5304
-6.54383
-6.55792
-6.57269
-6.58815
-6.6043
-6.62115
-6.63868
-6.6569
-6.67582
-6.6954
-6.71564
-6.73652
-6.75802
-6.78016
-6.80286
-6.8261
-6.84987
-6.87413
-6.89874
-6.92376
-6.94904
-6.97458
-7.00021
-7.0259
-7.05156
-7.07708
-7.10234
-7.12722
-7.15168
-7.17544
-7.19846
-7.22054
-7.24161
-7.26147
-7.27993
-7.29693
-7.31214
-7.32551
-7.3368
-7.34587
-7.35256
-7.35657
-7.35775
-7.35597
-7.35098
-7.34246
-7.33044
-7.31452
-7.2945
-7.2703
-7.24153
-7.20814
-7.16996
-7.1266
-7.07811
-7.02413
-6.96456
-6.89927
-6.82807
-6.75067
-6.66694
-6.57682
-6.48016
-6.37687
-6.26682
-6.14994
-6.02613
-5.89526
-5.75755
-5.61258
-5.46032
-5.30107
-5.13484
-4.9612
-4.7806
-4.59281
-4.39832
-4.1968
-3.98868
-3.77396
-3.55256
-3.32469
-3.09072
-2.85082
-2.60485
-2.35355
-2.09662
-1.83464
-1.56747
-1.29581
-1.01992
-0.739434
-0.455364
-0.16736
0.12378
0.417828
0.714783
1.01447
1.31639
1.61992
1.92502
2.23131
2.53826
2.84558
3.15323
3.46051
3.76727
4.07311
4.37781
4.68076
4.98184
5.28058
5.57664
5.86979
6.1598
6.44597
6.72874
7.00705
7.28116
7.55095
7.8158
8.07576
8.33061
8.58018
8.82419
9.06277
9.29534
9.522
9.74251
9.95658
10.1645
10.3659
10.561
10.7498
10.9323
11.1087
11.2788
11.4429
11.6004
11.7511
11.8948
12.0308
12.1586
12.2773
12.3859
12.4836
12.5775
-6.34682
-6.34608
-6.3516
-6.35663
-6.36108
-6.36501
-6.36852
-6.37172
-6.37472
-6.37764
-6.38056
-6.38355
-6.38668
-6.39002
-6.3936
-6.39748
-6.4017
-6.40628
-6.41126
-6.41666
-6.42252
-6.42885
-6.43568
-6.44303
-6.45093
-6.45938
-6.46841
-6.47804
-6.48829
-6.49917
-6.51069
-6.52287
-6.53572
-6.54924
-6.56345
-6.57834
-6.59392
-6.61019
-6.62715
-6.6448
-6.66314
-6.68215
-6.70182
-6.72215
-6.74312
-6.76471
-6.7869
-6.80967
-6.83297
-6.85678
-6.88104
-6.9057
-6.93069
-6.95597
-6.98143
-7.00701
-7.03263
-7.05819
-7.08355
-7.10861
-7.13331
-7.1575
-7.18095
-7.20369
-7.22546
-7.24617
-7.26564
-7.28374
-7.30026
-7.31509
-7.32799
-7.33882
-7.34743
-7.35358
-7.35713
-7.35784
-7.35555
-7.34998
-7.34105
-7.3285
-7.31204
-7.29156
-7.26678
-7.23757
-7.20363
-7.1649
-7.12106
-7.07204
-7.01756
-6.95752
-6.89178
-6.82002
-6.74216
-6.65818
-6.56772
-6.47074
-6.36716
-6.25679
-6.1396
-6.01547
-5.88454
-5.74664
-5.60161
-5.44911
-5.28978
-5.12331
-4.94985
-4.76932
-4.58146
-4.38714
-4.18569
-3.97762
-3.76318
-3.54189
-3.31432
-3.08066
-2.84107
-2.59558
-2.34467
-2.08795
-1.8263
-1.55953
-1.28834
-1.01271
-0.732887
-0.449206
-0.161817
0.128827
0.422514
0.719116
1.01826
1.31937
1.62248
1.92699
2.23273
2.53916
2.84605
3.15325
3.46005
3.76632
4.07166
4.37584
4.67837
4.97895
5.27753
5.57314
5.86592
6.15572
6.44164
6.72404
7.00216
7.27617
7.54578
7.81057
8.07034
8.32527
8.5748
8.81892
9.05734
9.29004
9.51664
9.7372
9.95145
10.1595
10.3609
10.556
10.7449
10.9276
11.104
11.274
11.4378
11.595
11.7453
11.8883
12.0234
12.1501
12.2674
12.3742
12.4699
12.5618
-6.35589
-6.35413
-6.35899
-6.36347
-6.36746
-6.37099
-6.37415
-6.37705
-6.37979
-6.38248
-6.38521
-6.38803
-6.39103
-6.39425
-6.39774
-6.40155
-6.4057
-6.41023
-6.41518
-6.42055
-6.42638
-6.4327
-6.43951
-6.44685
-6.45474
-6.46319
-6.47224
-6.48188
-6.49215
-6.50306
-6.51461
-6.52683
-6.53972
-6.55329
-6.56753
-6.58246
-6.59808
-6.61437
-6.63135
-6.64899
-6.6673
-6.68626
-6.70588
-6.72613
-6.747
-6.76848
-6.79053
-6.81314
-6.83627
-6.85987
-6.88392
-6.90833
-6.93308
-6.95806
-6.98322
-7.00848
-7.03372
-7.05888
-7.08384
-7.10848
-7.13269
-7.15636
-7.17935
-7.20153
-7.22275
-7.24288
-7.26178
-7.27926
-7.2952
-7.3094
-7.32171
-7.33195
-7.33993
-7.34549
-7.34842
-7.34853
-7.34562
-7.3395
-7.32996
-7.31679
-7.29978
-7.27872
-7.25343
-7.22367
-7.18927
-7.15002
-7.10572
-7.05623
-7.00135
-6.94091
-6.87473
-6.80263
-6.72443
-6.64002
-6.54927
-6.45204
-6.34824
-6.2377
-6.12036
-5.9962
-5.8651
-5.72698
-5.5818
-5.42952
-5.27018
-5.10376
-4.93034
-4.74986
-4.56243
-4.36818
-4.1671
-3.95937
-3.74505
-3.52428
-3.29717
-3.06393
-2.8247
-2.57959
-2.32913
-2.07311
-1.81202
-1.54586
-1.27523
-1.00018
-0.720935
-0.437932
-0.151216
0.138727
0.432002
0.727763
1.02618
1.32679
1.62915
1.93299
2.23814
2.54396
2.85026
3.15684