/*--------------------------------*- C++ -*----------------------------------*\
  =========                 |
  \\      /  F ield         | OpenFOAM: The Open Source CFD Toolbox
   \\    /   O peration     | Website:  https://openfoam.org
    \\  /    A nd           | Version:  7
     \\/     M anipulation  |
\*---------------------------------------------------------------------------*/
FoamFile
{
    version     2.0;
    format      ascii;
    class       surfaceScalarField;
    location    "700";
    object      phi;
}
// * * * * * * * * * * * * * * * * * * * * * * * * * * * * * * * * * * * * * //

dimensions      [0 3 -1 0 0 0 0];

internalField   nonuniform List<scalar> 
97240
(
-6.49191e-08
2.62443e-08
1.63288e-06
-1.43917e-06
1.36169e-06
7.74902e-08
-1.28665e-06
1.21935e-06
6.7306e-08
-1.16115e-06
1.11566e-06
4.54855e-08
-1.07951e-06
1.05172e-06
2.77867e-08
-1.02887e-06
1.01009e-06
1.87852e-08
-9.93367e-07
9.78608e-07
1.47609e-08
-9.64769e-07
9.52172e-07
1.25983e-08
-9.40188e-07
9.29233e-07
1.09558e-08
-9.18824e-07
9.09345e-07
9.47972e-09
-9.00382e-07
8.9225e-07
8.13189e-09
-8.8458e-07
8.77637e-07
6.94348e-09
-8.71109e-07
8.65223e-07
5.88723e-09
-8.5971e-07
8.54764e-07
4.94656e-09
-8.50168e-07
8.46089e-07
4.07865e-09
-8.42367e-07
8.39161e-07
3.20656e-09
-8.36381e-07
8.34229e-07
2.15335e-09
-8.328e-07
8.32227e-07
5.73809e-10
-2.06854e-08
1.96751e-08
1.70963e-06
-1.72713e-06
1.73403e-06
-8.86228e-08
8.17302e-08
-1.7382e-06
1.73854e-06
-9.01316e-08
8.9796e-08
-1.73463e-06
1.72698e-06
-7.48043e-08
8.24552e-08
-1.71591e-06
1.70267e-06
-5.73065e-08
7.05496e-08
-1.68748e-06
1.67164e-06
-4.48141e-08
6.0651e-08
-1.65504e-06
1.63874e-06
-3.66925e-08
5.29961e-08
-1.62232e-06
1.60664e-06
-3.10863e-08
4.67674e-08
-1.59115e-06
1.57654e-06
-2.67575e-08
4.13742e-08
-1.56222e-06
1.5488e-06
-2.31524e-08
3.65789e-08
-1.5357e-06
1.52346e-06
-2.00499e-08
3.22911e-08
-1.51156e-06
1.50046e-06
-1.73595e-08
2.8455e-08
-1.4897e-06
1.47969e-06
-1.49959e-08
2.50052e-08
-1.47001e-06
1.46103e-06
-1.28898e-08
2.18658e-08
-1.45238e-06
1.4444e-06
-1.09567e-08
1.89366e-08
-1.43676e-06
1.42978e-06
-9.06892e-09
1.6058e-08
-1.42317e-06
1.41723e-06
-6.96397e-09
1.29024e-08
-1.41178e-06
1.40703e-06
-3.69001e-09
8.43626e-09
-1.82297e-08
1.66527e-08
1.83287e-06
-1.83967e-06
1.84509e-06
-7.53115e-08
6.98901e-08
-1.85006e-06
1.85453e-06
-8.54981e-08
8.10248e-08
-1.85814e-06
1.86059e-06
-8.19071e-08
7.94511e-08
-1.86209e-06
1.86272e-06
-7.31586e-08
7.25329e-08
-1.86264e-06
1.86197e-06
-6.55746e-08
6.62429e-08
-1.86078e-06
1.85917e-06
-5.95203e-08
6.11281e-08
-1.85712e-06
1.85473e-06
-5.43618e-08
5.67459e-08
-1.85194e-06
1.84888e-06
-4.96103e-08
5.26755e-08
-1.84544e-06
1.84179e-06
-4.51096e-08
4.87599e-08
-1.83781e-06
1.83368e-06
-4.08452e-08
4.49692e-08
-1.82928e-06
1.8248e-06
-3.68258e-08
4.13018e-08
-1.82011e-06
1.8154e-06
-3.30397e-08
3.77416e-08
-1.81054e-06
1.80574e-06
-2.94504e-08
3.42523e-08
-1.80083e-06
1.79606e-06
-2.59798e-08
3.07563e-08
-1.79125e-06
1.78662e-06
-2.24715e-08
2.70945e-08
-1.78203e-06
1.77768e-06
-1.8584e-08
2.29361e-08
-1.77339e-06
1.76923e-06
-1.34226e-08
1.75837e-08
-1.51455e-08
1.38495e-08
1.964e-06
-1.96902e-06
1.97359e-06
-6.5181e-08
6.06148e-08
-1.97779e-06
1.9817e-06
-7.70127e-08
7.30951e-08
-1.98524e-06
1.98811e-06
-7.67311e-08
7.38652e-08
-1.99045e-06
1.99228e-06
-7.10526e-08
6.9219e-08
-1.99379e-06
1.99499e-06
-6.55611e-08
6.43599e-08
-1.996e-06
1.99683e-06
-6.09589e-08
6.01315e-08
-1.99754e-06
1.99811e-06
-5.69655e-08
5.63909e-08
-1.99859e-06
1.99896e-06
-5.32403e-08
5.28721e-08
-1.99924e-06
1.99942e-06
-4.96473e-08
4.94633e-08
-1.99952e-06
1.99954e-06
-4.61544e-08
4.61368e-08
-1.99948e-06
1.99935e-06
-4.27521e-08
4.28818e-08
-1.99915e-06
1.9989e-06
-3.9416e-08
3.96712e-08
-1.99858e-06
1.99823e-06
-3.61016e-08
3.64578e-08
-1.99782e-06
1.99739e-06
-3.2723e-08
3.31531e-08
-1.99693e-06
1.99644e-06
-2.91156e-08
2.95975e-08
-1.99592e-06
1.99537e-06
-2.4971e-08
2.55225e-08
-1.99472e-06
1.99391e-06
-1.97763e-08
2.05842e-08
-1.26464e-08
1.15876e-08
2.10466e-06
-2.10859e-06
2.1127e-06
-5.64259e-08
5.23185e-08
-2.11663e-06
2.12029e-06
-6.94652e-08
6.58048e-08
-2.12368e-06
2.12654e-06
-7.11002e-08
6.82382e-08
-2.129e-06
2.13105e-06
-6.73235e-08
6.52784e-08
-2.13285e-06
2.1344e-06
-6.29861e-08
6.14336e-08
-2.13582e-06
2.1371e-06
-5.90551e-08
5.77798e-08
-2.13831e-06
2.13941e-06
-5.55027e-08
5.43971e-08
-2.14047e-06
2.14146e-06
-5.21277e-08
5.11464e-08
-2.1424e-06
2.14328e-06
-4.88399e-08
4.79594e-08
-2.14414e-06
2.14494e-06
-4.56169e-08
4.48191e-08
-2.14572e-06
2.14645e-06
-4.24481e-08
4.1716e-08
-2.14717e-06
2.14785e-06
-3.93062e-08
3.86239e-08
-2.14853e-06
2.14918e-06
-3.61443e-08
3.5497e-08
-2.14983e-06
2.15045e-06
-3.28756e-08
3.22542e-08
-2.15107e-06
2.15166e-06
-2.93527e-08
2.87646e-08
-2.15222e-06
2.15272e-06
-2.5354e-08
2.48561e-08
-2.15313e-06
2.15337e-06
-2.06687e-08
2.04221e-08
-1.05922e-08
9.71272e-09
2.25548e-06
-2.25864e-06
2.26229e-06
-4.85614e-08
4.49112e-08
-2.26598e-06
2.26949e-06
-6.23425e-08
5.88318e-08
-2.27281e-06
2.2757e-06
-6.54652e-08
6.25823e-08
-2.27825e-06
2.28043e-06
-6.32364e-08
6.10556e-08
-2.2824e-06
2.28413e-06
-5.98418e-08
5.81105e-08
-2.28575e-06
2.28722e-06
-5.64426e-08
5.497e-08
-2.28864e-06
2.28995e-06
-5.32136e-08
5.18971e-08
-2.29124e-06
2.29244e-06
-5.00726e-08
4.88658e-08
-2.29363e-06
2.29475e-06
-4.69725e-08
4.58512e-08
-2.29586e-06
2.29691e-06
-4.39021e-08
4.28491e-08
-2.29796e-06
2.29896e-06
-4.08537e-08
3.98541e-08
-2.29996e-06
2.30092e-06
-3.78023e-08
3.68437e-08
-2.30188e-06
2.30281e-06
-3.47051e-08
3.37787e-08
-2.30374e-06
2.30463e-06
-3.1488e-08
3.05939e-08
-2.30552e-06
2.30636e-06
-2.80385e-08
2.71968e-08
-2.30718e-06
2.30791e-06
-2.4229e-08
2.35003e-08
-2.30855e-06
2.30905e-06
-2.00251e-08
1.95212e-08
-8.88431e-09
8.15156e-09
2.41713e-06
-2.41967e-06
2.42287e-06
-4.16058e-08
3.84139e-08
-2.42627e-06
2.4296e-06
-5.5522e-08
5.21932e-08
-2.43283e-06
2.43572e-06
-5.97888e-08
5.68985e-08
-2.43836e-06
2.44066e-06
-5.8887e-08
5.65837e-08
-2.44278e-06
2.44466e-06
-5.63618e-08
5.44765e-08
-2.44644e-06
2.44807e-06
-5.34707e-08
5.18436e-08
-2.44964e-06
2.4511e-06
-5.05499e-08
4.90835e-08
-2.45254e-06
2.45389e-06
-4.76245e-08
4.627e-08
-2.45523e-06
2.4565e-06
-4.46916e-08
4.34229e-08
-2.45776e-06
2.45896e-06
-4.17547e-08
4.05546e-08
-2.46015e-06
2.4613e-06
-3.88115e-08
3.76669e-08
-2.46244e-06
2.46354e-06
-3.58422e-08
3.47436e-08
-2.46464e-06
2.4657e-06
-3.28125e-08
3.17559e-08
-2.46675e-06
2.46776e-06
-2.96663e-08
2.86582e-08
-2.46876e-06
2.46969e-06
-2.63304e-08
2.53958e-08
-2.47059e-06
2.4714e-06
-2.27505e-08
2.19421e-08
-2.47213e-06
2.47274e-06
-1.89755e-08
1.83655e-08
-7.4601e-09
6.84783e-09
2.59041e-06
-2.59257e-06
2.59534e-06
-3.5542e-08
3.27789e-08
-2.59842e-06
2.60152e-06
-4.90856e-08
4.59881e-08
-2.60461e-06
2.60745e-06
-5.41213e-08
5.12776e-08
-2.61012e-06
2.61251e-06
-5.43115e-08
5.19233e-08
-2.61474e-06
2.61676e-06
-5.25871e-08
5.05687e-08
-2.61868e-06
2.62045e-06
-5.02017e-08
4.8434e-08
-2.62216e-06
2.62376e-06
-4.76003e-08
4.5999e-08
-2.62533e-06
2.62681e-06
-4.48981e-08
4.34155e-08
-2.62828e-06
2.62967e-06
-4.21364e-08
4.07453e-08
-2.63105e-06
2.63236e-06
-3.93369e-08
3.80201e-08
-2.63368e-06
2.63493e-06
-3.65058e-08
3.52515e-08
-2.63618e-06
2.63738e-06
-3.36313e-08
3.24326e-08
-2.63858e-06
2.63972e-06
-3.06905e-08
2.95472e-08
-2.64086e-06
2.64193e-06
-2.76478e-08
2.65696e-08
-2.64299e-06
2.64398e-06
-2.44649e-08
2.3477e-08
-2.64493e-06
2.64578e-06
-2.11365e-08
2.02803e-08
-2.64657e-06
2.64725e-06
-1.77405e-08
1.70611e-08
-6.26849e-09
5.75429e-09
2.77621e-06
-2.7779e-06
2.78029e-06
-3.02977e-08
2.7912e-08
-2.78305e-06
2.7859e-06
-4.31151e-08
4.02653e-08
-2.78881e-06
2.79156e-06
-4.8573e-08
4.5827e-08
-2.7942e-06
2.79662e-06
-4.95956e-08
4.71777e-08
-2.79892e-06
2.80104e-06
-4.8568e-08
4.64555e-08
-2.80307e-06
2.80495e-06
-4.66666e-08
4.47828e-08
-2.80678e-06
2.8085e-06
-4.43922e-08
4.2672e-08
-2.81019e-06
2.81179e-06
-4.19257e-08
4.03276e-08
-2.81337e-06
2.81487e-06
-3.93468e-08
3.78457e-08
-2.81636e-06
2.81778e-06
-3.66967e-08
3.52766e-08
-2.81919e-06
2.82054e-06
-3.39926e-08
3.26435e-08
-2.82189e-06
2.82317e-06
-3.12327e-08
2.99502e-08
-2.82444e-06
2.82566e-06
-2.84073e-08
2.71935e-08
-2.82686e-06
2.82799e-06
-2.55002e-08
2.43665e-08
-2.8291e-06
2.83013e-06
-2.2501e-08
2.14695e-08
-2.83112e-06
2.83202e-06
-1.94324e-08
1.85336e-08
-2.83286e-06
2.8336e-06
-1.63751e-08
1.56361e-08
-5.26608e-09
4.83128e-09
2.97533e-06
-2.97683e-06
2.97889e-06
-2.57692e-08
2.37064e-08
-2.98137e-06
2.98398e-06
-3.76302e-08
3.50221e-08
-2.9867e-06
2.98932e-06
-4.32319e-08
4.06093e-08
-2.99189e-06
2.9943e-06
-4.48445e-08
4.24402e-08
-2.99663e-06
2.99879e-06
-4.43851e-08
4.22206e-08
-3.0009e-06
3.00286e-06
-4.2919e-08
4.09524e-08
-3.00479e-06
3.0066e-06
-4.09614e-08
3.91469e-08
-3.00839e-06
3.01008e-06
-3.87345e-08
3.70399e-08
-3.01176e-06
3.01336e-06
-3.63478e-08
3.47522e-08
-3.01494e-06
3.01645e-06
-3.38597e-08
3.23501e-08
-3.01795e-06
3.01938e-06
-3.12989e-08
2.98679e-08
-3.0208e-06
3.02216e-06
-2.86749e-08
2.73204e-08
-3.0235e-06
3.02477e-06
-2.59907e-08
2.47167e-08
-3.02603e-06
3.02721e-06
-2.32471e-08
2.20648e-08
-3.02837e-06
3.02944e-06
-2.0453e-08
1.93806e-08
-3.03047e-06
3.03141e-06
-1.76447e-08
1.67034e-08
-3.0323e-06
3.03309e-06
-1.48946e-08
1.40996e-08
-4.41698e-09
4.04668e-09
3.18877e-06
-3.19004e-06
3.19183e-06
-2.18504e-08
2.00592e-08
-3.19404e-06
3.19642e-06
-3.26137e-08
3.02319e-08
-3.19895e-06
3.20145e-06
-3.81388e-08
3.56479e-08
-3.20394e-06
3.2063e-06
-4.01339e-08
3.77679e-08
-3.20863e-06
3.21082e-06
-4.01163e-08
3.79299e-08
-3.21296e-06
3.21498e-06
-3.90235e-08
3.70027e-08
-3.21697e-06
3.21885e-06
-3.73581e-08
3.54745e-08
-3.22072e-06
3.22249e-06
-3.53642e-08
3.35949e-08
-3.22424e-06
3.22591e-06
-3.31723e-08
3.15015e-08
-3.22757e-06
3.22915e-06
-3.08548e-08
2.92729e-08
-3.23072e-06
3.23222e-06
-2.84514e-08
2.69538e-08
-3.23371e-06
3.23512e-06
-2.59818e-08
2.45686e-08
-3.23652e-06
3.23784e-06
-2.34606e-08
2.2137e-08
-3.23914e-06
3.24037e-06
-2.09016e-08
1.96777e-08
-3.24156e-06
3.24267e-06
-1.83258e-08
1.72157e-08
-3.24374e-06
3.24472e-06
-1.57738e-08
1.47914e-08
-3.24566e-06
3.2465e-06
-1.33059e-08
1.24591e-08
-3.74327e-09
3.46594e-09
2.87068e-06
-2.87159e-06
2.87292e-06
-1.84431e-08
1.71174e-08
-2.87459e-06
2.87643e-06
-2.80328e-08
2.61925e-08
-2.87842e-06
2.88042e-06
-3.33053e-08
3.13129e-08
-2.88244e-06
2.8844e-06
-3.55058e-08
3.35536e-08
-2.88634e-06
2.88818e-06
-3.58138e-08
3.39681e-08
-2.89001e-06
2.89174e-06
-3.50314e-08
3.32997e-08
-2.89345e-06
2.89508e-06
-3.36284e-08
3.19999e-08
-2.8967e-06
2.89823e-06
-3.18561e-08
3.03188e-08
-2.89976e-06
2.90122e-06
-2.98574e-08
2.84022e-08
-2.90266e-06
2.90404e-06
-2.77159e-08
2.63375e-08
-2.90541e-06
2.90671e-06
-2.54804e-08
2.41768e-08
-2.90801e-06
2.90923e-06
-2.318e-08
2.19525e-08
-2.91045e-06
2.91159e-06
-2.08382e-08
1.96915e-08
-2.91272e-06
2.91378e-06
-1.8478e-08
1.74193e-08
-2.91481e-06
2.91577e-06
-1.61267e-08
1.51647e-08
-2.9167e-06
2.91756e-06
-1.38237e-08
1.29659e-08
-2.91838e-06
2.91913e-06
-1.16178e-08
1.08668e-08
-3.16086e-09
2.88324e-09
3.49938e-06
-3.50031e-06
3.50167e-06
-1.5898e-08
1.45376e-08
-3.50342e-06
3.50537e-06
-2.44713e-08
2.25198e-08
-3.50751e-06
3.50969e-06
-2.94223e-08
2.72451e-08
-3.51194e-06
3.51413e-06
-3.16769e-08
2.94864e-08
-3.51633e-06
3.51844e-06
-3.21764e-08
3.00635e-08
-3.52055e-06
3.52256e-06
-3.1608e-08
2.95992e-08
-3.52455e-06
3.52646e-06
-3.0403e-08
2.8499e-08
-3.52835e-06
3.53015e-06
-2.88081e-08
2.7003e-08
-3.53195e-06
3.53366e-06
-2.6971e-08
2.52593e-08
-3.53536e-06
3.53698e-06
-2.49817e-08
2.336e-08
-3.53859e-06
3.54012e-06
-2.28951e-08
2.1363e-08
-3.54164e-06
3.54308e-06
-2.07467e-08
1.93066e-08
-3.5445e-06
3.54585e-06
-1.8566e-08
1.72228e-08
-3.54717e-06
3.54841e-06
-1.63806e-08
1.51411e-08
-3.54961e-06
3.55074e-06
-1.42199e-08
1.30913e-08
-3.55184e-06
3.55285e-06
-1.21206e-08
1.11077e-08
-3.55382e-06
3.55472e-06
-1.01225e-08
9.22571e-09
-2.57887e-09
2.30319e-09
4.26568e-06
-4.26661e-06
4.26799e-06
-1.32956e-08
1.19192e-08
-4.26978e-06
4.27182e-06
-2.07099e-08
1.86738e-08
-4.27409e-06
4.27643e-06
-2.51948e-08
2.28515e-08
-4.27888e-06
4.28131e-06
-2.73951e-08
2.4971e-08
-4.28377e-06
4.28616e-06
-2.80249e-08
2.56359e-08
-4.28856e-06
4.29087e-06
-2.76471e-08
2.53418e-08
-4.29317e-06
4.29538e-06
-2.66405e-08
2.44353e-08
-4.29758e-06
4.29968e-06
-2.5237e-08
2.31358e-08
-4.30177e-06
4.30377e-06
-2.3583e-08
2.15862e-08
-4.30575e-06
4.30764e-06
-2.17717e-08
1.98797e-08
-4.30952e-06
4.31131e-06
-1.98632e-08
1.80775e-08
-4.31307e-06
4.31475e-06
-1.7898e-08
1.6222e-08
-4.3164e-06
4.31796e-06
-1.59099e-08
1.43488e-08
-4.3195e-06
4.32094e-06
-1.39296e-08
1.24887e-08
-4.32234e-06
4.32366e-06
-1.19866e-08
1.06708e-08
-4.32494e-06
4.32613e-06
-1.0113e-08
8.92452e-09
-4.32728e-06
4.32834e-06
-8.34047e-09
7.27736e-09
-2.00176e-09
1.72933e-09
5.19997e-06
-5.2008e-06
5.20218e-06
-1.067e-08
9.29195e-09
-5.204e-06
5.2061e-06
-1.67983e-08
1.47003e-08
-5.20847e-06
5.21096e-06
-2.06599e-08
1.81705e-08
-5.21361e-06
5.21626e-06
-2.26721e-08
2.00242e-08
-5.21898e-06
5.22165e-06
-2.3345e-08
2.06766e-08
-5.22435e-06
5.22697e-06
-2.31139e-08
2.04974e-08
-5.2296e-06
5.23213e-06
-2.22933e-08
1.97641e-08
-5.23466e-06
5.23708e-06
-2.1089e-08
1.86643e-08
-5.2395e-06
5.24181e-06
-1.96385e-08
1.73274e-08
-5.24411e-06
5.2463e-06
-1.80334e-08
1.58416e-08
-5.24848e-06
5.25055e-06
-1.63354e-08
1.42676e-08
-5.25259e-06
5.25453e-06
-1.4588e-08
1.26489e-08
-5.25644e-06
5.25825e-06
-1.28271e-08
1.10215e-08
-5.26002e-06
5.26169e-06
-1.10838e-08
9.41554e-09
-5.26332e-06
5.26485e-06
-9.38578e-09
7.85721e-09
-5.26634e-06
5.26773e-06
-7.76014e-09
6.37071e-09
-5.26908e-06
5.27033e-06
-6.23096e-09
4.97657e-09
-1.43103e-09
1.16044e-09
6.33857e-06
-6.33959e-06
6.34096e-06
-8.04411e-09
6.66736e-09
-6.3428e-06
6.34496e-06
-1.27751e-08
1.0625e-08
-6.34743e-06
6.35005e-06
-1.58534e-08
1.32297e-08
-6.35288e-06
6.35574e-06
-1.75264e-08
1.46612e-08
-6.35873e-06
6.36168e-06
-1.81317e-08
1.51808e-08
-6.36469e-06
6.36763e-06
-1.79816e-08
1.50406e-08
-6.37061e-06
6.37348e-06
-1.73187e-08
1.44436e-08
-6.37637e-06
6.37915e-06
-1.6312e-08
1.35362e-08
-6.38192e-06
6.38458e-06
-1.5081e-08
1.24246e-08
-6.38722e-06
6.38975e-06
-1.37093e-08
1.1185e-08
-6.39225e-06
6.39464e-06
-1.22555e-08
9.87214e-09
-6.39699e-06
6.39923e-06
-1.0762e-08
8.52622e-09
-6.40144e-06
6.40352e-06
-9.26399e-09
7.18014e-09
-6.40557e-06
6.4075e-06
-7.79024e-09
5.86068e-09
-6.40939e-06
6.41116e-06
-6.36509e-09
4.5898e-09
-6.4129e-06
6.41452e-06
-5.01017e-09
3.38624e-09
-6.4161e-06
6.41758e-06
-3.74313e-09
2.26454e-09
-8.61321e-10
5.85905e-10
7.72728e-06
-7.72739e-06
7.72879e-06
-5.4158e-09
4.02329e-09
-7.73066e-06
7.73289e-06
-8.64884e-09
6.42889e-09
-7.73547e-06
7.73824e-06
-1.07883e-08
8.01488e-09
-7.74126e-06
7.74436e-06
-1.19635e-08
8.8656e-09
-7.74762e-06
7.75087e-06
-1.23744e-08
9.12208e-09
-7.75422e-06
7.75751e-06
-1.22221e-08
8.93203e-09
-7.76086e-06
7.76411e-06
-1.16732e-08
8.42222e-09
-7.76739e-06
7.77055e-06
-1.08516e-08
7.68996e-09
-7.77372e-06
7.77676e-06
-9.84956e-09
6.80991e-09
-7.77979e-06
7.78269e-06
-8.73484e-09
5.83815e-09
-7.78557e-06
7.78831e-06
-7.55684e-09
4.81667e-09
-7.79102e-06
7.7936e-06
-6.35264e-09
3.77757e-09
-7.79614e-06
7.79854e-06
-5.1523e-09
2.74685e-09
-7.80091e-06
7.80315e-06
-3.9801e-09
1.74535e-09
-7.80534e-06
7.80741e-06
-2.85558e-09
7.89689e-10
-7.80943e-06
7.81133e-06
-1.79488e-09
-1.06917e-10
-7.81319e-06
7.81494e-06
-8.10106e-10
-9.3497e-10
-2.74046e-10
-2.33254e-11
9.4193e-06
-9.42025e-06
9.42171e-06
-2.73822e-09
1.27507e-09
-9.4237e-06
9.42606e-06
-4.36418e-09
1.99932e-09
-9.42883e-06
9.43184e-06
-5.41199e-09
2.40959e-09
-9.43513e-06
9.43854e-06
-5.93234e-09
2.5256e-09
-9.44215e-06
9.44578e-06
-6.01887e-09
2.39333e-09
-9.44953e-06
9.45324e-06
-5.77375e-09
2.06646e-09
-9.45703e-06
9.46072e-06
-5.28746e-09
1.59487e-09
-9.46446e-06
9.46807e-06
-4.63178e-09
1.02045e-09
-9.47169e-06
9.47518e-06
-3.8634e-09
3.77835e-10
-9.47866e-06
9.48199e-06
-3.02603e-09
-3.04885e-10
-9.48531e-06
9.48847e-06
-2.15334e-09
-1.00491e-09
-9.4916e-06
9.49457e-06
-1.27175e-09
-1.70332e-09
-9.49751e-06
9.5003e-06
-4.02721e-10
-2.38455e-09
-9.50305e-06
9.50565e-06
4.36531e-10
-3.03591e-09
-9.50821e-06
9.51062e-06
1.23226e-09
-3.647e-09
-9.51299e-06
9.51523e-06
1.97383e-09
-4.21008e-09
-9.51743e-06
9.51949e-06
2.65382e-09
-4.72006e-09
3.78437e-10
-7.43195e-10
1.14824e-05
-1.14824e-05
1.14841e-05
1.22403e-10
-1.79401e-09
-1.14864e-05
1.14891e-05
2.66787e-10
-2.97798e-09
-1.14923e-05
1.14957e-05
4.78217e-10
-3.93388e-09
-1.14995e-05
1.15035e-05
7.63131e-10
-4.69837e-09
-1.15076e-05
1.15118e-05
1.11756e-09
-5.31757e-09
-1.15162e-05
1.15205e-05
1.53225e-09
-5.8355e-09
-1.15249e-05
1.15292e-05
1.9958e-09
-6.2872e-09
-1.15335e-05
1.15377e-05
2.49544e-09
-6.69531e-09
-1.15419e-05
1.1546e-05
3.0185e-09
-7.07394e-09
-1.15501e-05
1.15539e-05
3.55284e-09
-7.43039e-09
-1.15578e-05
1.15615e-05
4.08682e-09
-7.76663e-09
-1.15651e-05
1.15686e-05
4.60928e-09
-8.08083e-09
-1.1572e-05
1.15753e-05
5.11062e-09
-8.37046e-09
-1.15785e-05
1.15816e-05
5.58256e-09
-8.63228e-09
-1.15846e-05
1.15874e-05
6.01784e-09
-8.86249e-09
-1.15902e-05
1.15929e-05
6.41121e-09
-9.05853e-09
-1.15955e-05
1.15979e-05
6.75942e-09
-9.21909e-09
1.02821e-09
-1.33612e-09
8.40631e-06
-8.40614e-06
8.40747e-06
3.50523e-09
-4.83519e-09
-8.40927e-06
8.4114e-06
5.74174e-09
-7.87377e-09
-8.41388e-06
8.41656e-06
7.43817e-09
-1.0115e-08
-8.41948e-06
8.42248e-06
8.66701e-09
-1.16684e-08
-8.42565e-06
8.4288e-06
9.5309e-09
-1.26878e-08
-8.43206e-06
8.43525e-06
1.0132e-08
-1.33254e-08
-8.4385e-06
8.44165e-06
1.05547e-08
-1.37055e-08
-8.44482e-06
8.44788e-06
1.08582e-08
-1.39157e-08
-8.45094e-06
8.45387e-06
1.10837e-08
-1.40171e-08
-8.4568e-06
8.45959e-06
1.12576e-08
-1.40495e-08
-8.46236e-06
8.465e-06
1.13949e-08
-1.40366e-08
-8.46762e-06
8.47011e-06
1.15025e-08
-1.3991e-08
-8.47257e-06
8.47491e-06
1.15843e-08
-1.39205e-08
-8.47722e-06
8.4794e-06
1.16414e-08
-1.38291e-08
-8.48156e-06
8.48361e-06
1.1673e-08
-1.37174e-08
-8.48562e-06
8.48753e-06
1.16787e-08
-1.35864e-08
-8.48941e-06
8.49119e-06
1.16589e-08
-1.3437e-08
1.63356e-09
-1.96739e-09
7.31733e-06
-7.31818e-06
7.31956e-06
6.27126e-09
-7.64816e-09
-7.32141e-06
7.32357e-06
1.01544e-08
-1.23149e-08
-7.32605e-06
7.32869e-06
1.29449e-08
-1.55861e-08
-7.33154e-06
7.33442e-06
1.48036e-08
-1.7687e-08
-7.33742e-06
7.34038e-06
1.59494e-08
-1.89091e-08
-7.3434e-06
7.34633e-06
1.65936e-08
-1.95259e-08
-7.34929e-06
7.35213e-06
1.69054e-08
-1.97504e-08
-7.35498e-06
7.3577e-06
1.70023e-08
-1.97273e-08
-7.36042e-06
7.36301e-06
1.6965e-08
-1.95541e-08
-7.36558e-06
7.36802e-06
1.68459e-08
-1.9293e-08
-7.37045e-06
7.37275e-06
1.66767e-08
-1.8981e-08
-7.37503e-06
7.3772e-06
1.64745e-08
-1.86384e-08
-7.37933e-06
7.38136e-06
1.62504e-08
-1.82784e-08
-7.38337e-06
7.38526e-06
1.60103e-08
-1.7908e-08
-7.38714e-06
7.38891e-06
1.57562e-08
-1.75299e-08
-7.39066e-06
7.39232e-06
1.54898e-08
-1.71462e-08
-7.39395e-06
7.3955e-06
1.52128e-08
-1.67587e-08
2.29926e-09
-2.6798e-09
6.37038e-06
-6.37132e-06
6.37283e-06
9.18661e-09
-1.07027e-08
-6.37484e-06
6.37714e-06
1.46938e-08
-1.69984e-08
-6.37974e-06
6.38246e-06
1.84452e-08
-2.1161e-08
-6.38533e-06
6.38819e-06
2.07564e-08
-2.36176e-08
-6.39112e-06
6.39397e-06
2.20125e-08
-2.48574e-08
-6.39683e-06
6.39957e-06
2.25621e-08
-2.53071e-08
-6.40231e-06
6.40492e-06
2.26668e-08
-2.52753e-08
-6.4075e-06
6.40996e-06
2.24996e-08
-2.49594e-08
-6.4124e-06
6.41471e-06
2.21735e-08
-2.44844e-08
-6.41699e-06
6.41916e-06
2.17589e-08
-2.39256e-08
-6.4213e-06
6.42333e-06
2.12968e-08
-2.3326e-08
-6.42533e-06
6.42723e-06
2.08093e-08
-2.2708e-08
-6.42911e-06
6.43088e-06
2.03107e-08
-2.2086e-08
-6.43263e-06
6.43429e-06
1.98087e-08
-2.14678e-08
-6.43593e-06
6.43748e-06
1.9306e-08
-2.08558e-08
-6.43901e-06
6.44046e-06
1.88049e-08
-2.02521e-08
-6.44188e-06
6.44324e-06
1.83073e-08
-1.96584e-08
3.06427e-09
-3.50897e-09
5.54544e-06
-5.54752e-06
5.54926e-06
1.24339e-08
-1.41695e-08
-5.55151e-06
5.55403e-06
1.95776e-08
-2.21036e-08
-5.55682e-06
5.55967e-06
2.41363e-08
-2.69837e-08
-5.56262e-06
5.5655e-06
2.66896e-08
-2.95661e-08
-5.56838e-06
5.57114e-06
2.78581e-08
-3.06153e-08
-5.57387e-06
5.57645e-06
2.81609e-08
-3.07435e-08
-5.57899e-06
5.58139e-06
2.79571e-08
-3.03564e-08
-5.58375e-06
5.58598e-06
2.74679e-08
-2.96936e-08
-5.58817e-06
5.59023e-06
2.68274e-08
-2.88944e-08
-5.59227e-06
5.59419e-06
2.61138e-08
-2.80363e-08
-5.59609e-06
5.59788e-06
2.53697e-08
-2.71602e-08
-5.59964e-06
5.60131e-06
2.46166e-08
-2.62852e-08
-5.60295e-06
5.60451e-06
2.38682e-08
-2.54239e-08
-5.60604e-06
5.60749e-06
2.31318e-08
-2.45826e-08
-5.60892e-06
5.61028e-06
2.24091e-08
-2.37621e-08
-5.61161e-06
5.61287e-06
2.1702e-08
-2.2964e-08
-5.61412e-06
5.61529e-06
2.10118e-08
-2.2189e-08
3.95864e-09
-4.47312e-09
4.82851e-06
-4.8298e-06
4.83183e-06
1.61782e-08
-1.82137e-08
-4.83439e-06
4.83718e-06
2.49472e-08
-2.77373e-08
-4.84019e-06
4.84318e-06
3.01136e-08
-3.31094e-08
-4.84621e-06
4.8491e-06
3.26567e-08
-3.5544e-08
-4.85194e-06
4.8546e-06
3.35209e-08
-3.61806e-08
-4.85719e-06
4.8596e-06
3.34231e-08
-3.58358e-08
-4.86194e-06
4.86413e-06
3.28167e-08
-3.50051e-08
-4.86626e-06
4.86826e-06
3.19569e-08
-3.39528e-08
-4.87021e-06
4.87204e-06
3.0984e-08
-3.28157e-08
-4.87384e-06
4.87553e-06
2.9972e-08
-3.16617e-08
-4.87719e-06
4.87875e-06
2.89576e-08
-3.05216e-08
-4.88029e-06
4.88174e-06
2.79565e-08
-2.94073e-08
-4.88316e-06
4.88451e-06
2.69793e-08
-2.83264e-08
-4.88584e-06
4.88709e-06
2.60307e-08
-2.72826e-08
-4.88832e-06
4.88949e-06
2.51109e-08
-2.62749e-08
-4.89063e-06
4.89171e-06
2.42205e-08
-2.53033e-08
-4.89278e-06
4.89379e-06
2.336e-08
-2.43674e-08
4.97922e-09
-5.52735e-09
4.20355e-06
-4.20413e-06
4.20655e-06
2.05904e-08
-2.30127e-08
-4.20946e-06
4.21252e-06
3.08721e-08
-3.39297e-08
-4.21573e-06
4.21885e-06
3.63936e-08
-3.95166e-08
-4.22192e-06
4.22478e-06
3.86301e-08
-4.14861e-08
-4.22752e-06
4.23004e-06
3.89639e-08
-4.14829e-08
-4.23245e-06
4.23466e-06
3.83181e-08
-4.05247e-08
-4.23677e-06
4.23872e-06
3.72286e-08
-3.918e-08
-4.24061e-06
4.24236e-06
3.5963e-08
-3.77124e-08
-4.24405e-06
4.24564e-06
3.46498e-08
-3.62368e-08
-4.24719e-06
4.24864e-06
3.33467e-08
-3.47985e-08
-4.25006e-06
4.2514e-06
3.20763e-08
-3.34112e-08
-4.2527e-06
4.25394e-06
3.08453e-08
-3.2076e-08
-4.25514e-06
4.25628e-06
2.96585e-08
-3.07947e-08
-4.25739e-06
4.25844e-06
2.85176e-08
-2.95675e-08
-4.25947e-06
4.26045e-06
2.74205e-08
-2.83914e-08
-4.2614e-06
4.2623e-06
2.63667e-08
-2.72652e-08
-4.26318e-06
4.26401e-06
2.53551e-08
-2.61872e-08
6.01486e-09
-6.44799e-09
3.65843e-06
-3.66148e-06
3.66438e-06
2.58517e-08
-2.87448e-08
-3.66761e-06
3.6709e-06
3.73369e-08
-4.06248e-08
-3.67428e-06
3.67747e-06
4.29097e-08
-4.60984e-08
-3.68051e-06
3.68327e-06
4.4503e-08
-4.72587e-08
-3.68585e-06
3.68818e-06
4.40839e-08
-4.64065e-08
-3.69035e-06
3.69232e-06
4.27631e-08
-4.47264e-08
-3.69417e-06
3.69586e-06
4.11351e-08
-4.28276e-08
-3.69748e-06
3.69897e-06
3.94503e-08
-4.09401e-08
-3.70041e-06
3.70174e-06
3.7804e-08
-3.91366e-08
-3.70303e-06
3.70424e-06
3.62252e-08
-3.74292e-08
-3.70541e-06
3.7065e-06
3.4717e-08
-3.58108e-08
-3.70757e-06
3.70856e-06
3.32744e-08
-3.42702e-08
-3.70953e-06
3.71044e-06
3.18958e-08
-3.28033e-08
-3.71133e-06
3.71215e-06
3.05799e-08
-3.14071e-08
-3.71296e-06
3.71371e-06
2.93228e-08
-3.00774e-08
-3.71445e-06
3.71514e-06
2.81231e-08
-2.88122e-08
-3.71581e-06
3.71644e-06
2.69782e-08
-2.76085e-08
6.72054e-09
-6.79036e-09
3.18507e-06
-3.18781e-06
3.1912e-06
3.21189e-08
-3.55148e-08
-3.19468e-06
3.19816e-06
4.42454e-08
-4.77177e-08
-3.20166e-06
3.20486e-06
4.95214e-08
-5.27248e-08
-3.20783e-06
3.21046e-06
5.01389e-08
-5.27636e-08
-3.21286e-06
3.21497e-06
4.87801e-08
-5.08868e-08
-3.21689e-06
3.21859e-06
4.6694e-08
-4.83926e-08
-3.22016e-06
3.22156e-06
4.44958e-08
-4.58965e-08
-3.22287e-06
3.22406e-06
4.23874e-08
-4.35695e-08
-3.22517e-06
3.22619e-06
4.04138e-08
-4.14285e-08
-3.22715e-06
3.22803e-06
3.85679e-08
-3.94472e-08
-3.22887e-06
3.22963e-06
3.68311e-08
-3.75956e-08
-3.23036e-06
3.23102e-06
3.51861e-08
-3.58502e-08
-3.23166e-06
3.23223e-06
3.36254e-08
-3.42001e-08
-3.23277e-06
3.23327e-06
3.21446e-08
-3.26391e-08
-3.23374e-06
3.23416e-06
3.07387e-08
-3.11613e-08
-3.23456e-06
3.23492e-06
2.94057e-08
-2.97649e-08
-3.23526e-06
3.23556e-06
2.8142e-08
-2.84465e-08
6.43198e-09
-4.70908e-09
2.77128e-06
-2.77614e-06
2.77999e-06
3.93771e-08
-4.32321e-08
-2.78376e-06
2.78759e-06
5.15821e-08
-5.54156e-08
-2.79136e-06
2.79467e-06
5.61925e-08
-5.95051e-08
-2.79763e-06
2.80012e-06
5.55172e-08
-5.80132e-08
-2.80229e-06
2.80406e-06
5.30115e-08
-5.47875e-08
-2.80557e-06
2.80678e-06
5.0025e-08
-5.12373e-08
-2.80779e-06
2.80859e-06
4.71698e-08
-4.7969e-08
-2.80924e-06
2.80973e-06
4.45798e-08
-4.50762e-08
-2.81011e-06
2.81038e-06
4.22385e-08
-4.25037e-08
-2.81055e-06
2.81063e-06
4.00965e-08
-4.01754e-08
-2.81063e-06
2.81055e-06
3.81098e-08
-3.80308e-08
-2.8104e-06
2.81018e-06
3.62468e-08
-3.60294e-08
-2.80989e-06
2.80955e-06
3.44923e-08
-3.41511e-08
-2.80914e-06
2.80869e-06
3.28376e-08
-3.23847e-08
-2.80818e-06
2.80762e-06
3.12758e-08
-3.07221e-08
-2.80701e-06
2.80637e-06
2.98054e-08
-2.91623e-08
-2.80567e-06
2.80496e-06
2.84243e-08
-2.77062e-08
9.67975e-10
8.6261e-10
2.41117e-06
-2.41745e-06
2.42318e-06
4.79349e-08
-5.36627e-08
-2.42859e-06
2.4336e-06
5.99566e-08
-6.49753e-08
-2.43779e-06
2.44085e-06
6.31075e-08
-6.61694e-08
-2.443e-06
2.44419e-06
6.04355e-08
-6.16256e-08
-2.44454e-06
2.44409e-06
5.61506e-08
-5.57058e-08
-2.44294e-06
2.44121e-06
5.17697e-08
-5.00418e-08
-2.43893e-06
2.43624e-06
4.7884e-08
-4.51993e-08
-2.43312e-06
2.42973e-06
4.45288e-08
-4.11385e-08
-2.42598e-06
2.42207e-06
4.15944e-08
-3.76799e-08
-2.41786e-06
2.41355e-06
3.89679e-08
-3.4663e-08
-2.409e-06
2.40441e-06
3.65682e-08
-3.19771e-08
-2.39961e-06
2.39482e-06
3.43446e-08
-2.95528e-08
-2.38986e-06
2.38494e-06
3.22719e-08
-2.73501e-08
-2.37987e-06
2.37488e-06
3.03363e-08
-2.53431e-08
-2.36977e-06
2.36475e-06
2.85282e-08
-2.35125e-08
-2.35964e-06
2.35464e-06
2.68465e-08
-2.18489e-08
-2.34956e-06
2.34462e-06
2.52951e-08
-2.03533e-08
2.95566e-08
2.07144e-06
-2.14045e-06
2.13881e-06
6.08855e-08
-5.92472e-08
-2.13453e-06
2.12668e-06
7.04081e-08
-6.25657e-08
-2.11529e-06
2.10087e-06
6.67828e-08
-5.23573e-08
-2.08329e-06
2.06393e-06
5.80362e-08
-3.86749e-08
-2.04291e-06
2.02183e-06
4.88456e-08
-2.77645e-08
-2.00037e-06
1.97982e-06
4.10262e-08
-2.04749e-08
-1.95956e-06
1.9406e-06
3.49796e-08
-1.60122e-08
-1.92217e-06
1.90508e-06
3.03995e-08
-1.33013e-08
-1.88855e-06
1.87323e-06
2.68643e-08
-1.15472e-08
-1.85842e-06
1.84467e-06
2.4036e-08
-1.02875e-08
-1.83134e-06
1.81894e-06
2.1688e-08
-9.28634e-09
-1.80689e-06
1.79564e-06
1.96809e-08
-8.43435e-09
-1.78468e-06
1.77443e-06
1.79318e-08
-7.68314e-09
-1.76443e-06
1.75505e-06
1.63896e-08
-7.01125e-09
-1.74587e-06
1.73726e-06
1.50204e-08
-6.40871e-09
-1.72883e-06
1.72089e-06
1.38062e-08
-5.87384e-09
-1.71311e-06
1.70579e-06
1.27511e-08
-5.43055e-09
2.8344e-10
-1.81065e-09
1.546e-09
-1.69073e-09
4.05067e-09
-2.3328e-09
-6.87175e-09
9.82916e-09
-2.93996e-09
-1.26018e-08
1.50694e-08
-2.45489e-09
-1.70998e-08
1.8681e-08
-1.57258e-09
-1.97835e-08
2.04342e-08
-6.45148e-10
-2.06437e-08
2.04497e-08
1.97246e-10
-1.98992e-08
1.90324e-08
8.68271e-10
-1.78994e-08
1.65262e-08
1.37309e-09
-1.49634e-08
1.3219e-08
1.74257e-09
-1.13348e-08
9.30778e-09
2.02339e-09
-7.1761e-09
4.92202e-09
2.24842e-09
-2.58588e-09
1.3827e-10
2.43955e-09
2.38456e-09
-5.02597e-09
2.63059e-09
7.74727e-09
-1.05948e-08
2.83394e-09
1.35153e-08
-1.65765e-08
3.04489e-09
1.97201e-08
-2.30046e-08
3.26579e-09
2.6384e-08
-2.99154e-08
3.51043e-09
3.35494e-08
-3.73579e-08
3.78544e-09
4.12552e-08
-4.53462e-08
4.06618e-09
4.95321e-08
-5.39251e-08
4.36629e-09
5.84275e-08
-6.31192e-08
4.66339e-09
6.79378e-08
-7.29509e-08
4.98317e-09
7.80957e-08
-8.34373e-08
5.31024e-09
8.89128e-08
-9.46085e-08
5.66308e-09
1.00396e-07
-1.06427e-07
5.99714e-09
1.12544e-07
-1.18906e-07
6.32774e-09
1.25345e-07
-1.32034e-07
6.65372e-09
1.3879e-07
-1.45794e-07
6.96848e-09
1.52855e-07
-1.60164e-07
7.27328e-09
1.6752e-07
-1.75118e-07
7.56239e-09
1.82754e-07
-1.90627e-07
7.83816e-09
1.98525e-07
-2.06658e-07
8.09782e-09
2.14806e-07
-2.23183e-07
8.343e-09
2.31561e-07
-2.40113e-07
8.51684e-09
2.48755e-07
-2.5751e-07
8.72184e-09
2.66352e-07
-2.75295e-07
8.91054e-09
2.8426e-07
-2.93435e-07
9.14505e-09
3.02571e-07
-3.11909e-07
9.30865e-09
3.21196e-07
-3.30613e-07
9.38855e-09
3.40105e-07
-3.49655e-07
9.52278e-09
3.59203e-07
-3.68947e-07
9.71736e-09
3.7861e-07
-3.88385e-07
9.74943e-09
3.9823e-07
-4.08107e-07
9.85119e-09
4.17965e-07
-4.28012e-07
1.00227e-08
4.37954e-07
-4.47996e-07
1.00175e-08
4.58099e-07
-4.68213e-07
1.0089e-08
4.78289e-07
-4.88457e-07
1.01446e-08
4.9869e-07
-5.08917e-07
1.02028e-08
5.19099e-07
-5.29367e-07
1.02442e-08
5.39696e-07
-5.50004e-07
1.02839e-08
5.60261e-07
-5.70597e-07
1.03115e-08
5.80997e-07
-5.9136e-07
1.03388e-08
6.01663e-07
-6.1203e-07
1.0342e-08
6.22339e-07
-6.32718e-07
1.03523e-08
6.4316e-07
-6.53546e-07
1.03592e-08
6.63858e-07
-6.74224e-07
1.03388e-08
6.84514e-07
-6.94859e-07
1.03171e-08
7.05132e-07
-7.15595e-07
1.04348e-08
7.25844e-07
-7.36131e-07
1.02584e-08
7.46325e-07
-7.56558e-07
1.02045e-08
7.66693e-07
-7.7686e-07
1.01413e-08
7.86927e-07
-7.97016e-07
1.00644e-08
8.07006e-07
-8.17009e-07
9.98005e-09
8.26911e-07
-8.36824e-07
9.89045e-09
8.46629e-07
-8.56448e-07
9.7954e-09
8.66158e-07
-8.75886e-07
9.69647e-09
8.855e-07
-8.95148e-07
9.60198e-09
9.04666e-07
-9.14244e-07
9.50586e-09
9.23673e-07
-9.33192e-07
9.41442e-09
9.42538e-07
-9.5199e-07
9.31353e-09
9.6115e-07
-9.70215e-07
8.90469e-09
9.78987e-07
-9.8784e-07
8.7058e-09
9.96411e-07
-1.00487e-06
8.36528e-09
1.01345e-06
-1.0221e-06
8.63823e-09
1.0305e-06
-1.0387e-06
8.27672e-09
1.04682e-06
-1.05497e-06
8.27368e-09
1.06292e-06
-1.07083e-06
8.00264e-09
1.07875e-06
-1.08674e-06
8.00751e-09
1.09458e-06
-1.10186e-06
7.2388e-09
1.10905e-06
-1.11675e-06
7.64752e-09
1.12446e-06
-1.13102e-06
6.5415e-09
1.13764e-06
-1.14501e-06
7.40429e-09
1.15214e-06
-1.15725e-06
5.16754e-09
1.16231e-06
-1.16861e-06
6.35708e-09
1.17398e-06
-1.17859e-06