/*--------------------------------*- C++ -*----------------------------------*\
  =========                 |
  \\      /  F ield         | OpenFOAM: The Open Source CFD Toolbox
   \\    /   O peration     | Website:  https://openfoam.org
    \\  /    A nd           | Version:  7
     \\/     M anipulation  |
\*---------------------------------------------------------------------------*/
FoamFile
{
    version     2.0;
    format      ascii;
    class       volVectorField;
    location    "700";
    object      U;
}
// * * * * * * * * * * * * * * * * * * * * * * * * * * * * * * * * * * * * * //

dimensions      [0 1 -1 0 0 0 0];

internalField   nonuniform List<vector> 
48900
(
(10.1554 0.422367 0)
(8.81665 -0.79049 0)
(7.84625 -0.155306 0)
(7.12559 -0.00356692 0)
(6.67542 0.0205103 0)
(6.39108 0.0216805 0)
(6.18317 0.0194754 0)
(6.01118 0.0167678 0)
(5.86228 0.0141279 0)
(5.73296 0.0118276 0)
(5.6216 0.00993567 0)
(5.52628 0.0084215 0)
(5.44518 0.00715253 0)
(5.37668 0.00604714 0)
(5.31956 0.00501155 0)
(5.2733 0.00390297 0)
(5.23868 0.00251486 0)
(5.21936 0.00249574 0)
(9.99732 0.0258481 0)
(10.1331 0.0871211 0)
(10.1789 0.0999226 0)
(10.1355 0.105458 0)
(10.0075 0.095362 0)
(9.83143 0.0845462 0)
(9.63905 0.0756508 0)
(9.44885 0.0682024 0)
(9.26932 0.0616466 0)
(9.10342 0.055766 0)
(8.95164 0.0504663 0)
(8.8137 0.0456873 0)
(8.68897 0.0413087 0)
(8.57675 0.037208 0)
(8.4765 0.0331996 0)
(8.38795 0.0289587 0)
(8.3114 0.0237489 0)
(8.24827 0.0150091 0)
(10.0006 0.0207802 0)
(10.0609 0.0953312 0)
(10.1157 0.115648 0)
(10.1549 0.115807 0)
(10.1712 0.108976 0)
(10.1703 0.102988 0)
(10.1574 0.0985279 0)
(10.1353 0.0948525 0)
(10.1051 0.0912687 0)
(10.0679 0.0875071 0)
(10.0249 0.083527 0)
(9.97731 0.079349 0)
(9.92651 0.0749734 0)
(9.87392 0.0703395 0)
(9.82091 0.0652834 0)
(9.76888 0.059431 0)
(9.71924 0.0518994 0)
(9.67292 0.0404564 0)
(10.0006 0.0184425 0)
(10.0439 0.0828353 0)
(10.0871 0.102628 0)
(10.1229 0.107417 0)
(10.1466 0.104321 0)
(10.1618 0.100723 0)
(10.172 0.0978401 0)
(10.1791 0.0954433 0)
(10.1839 0.0931131 0)
(10.1867 0.0906516 0)
(10.1878 0.0879968 0)
(10.1872 0.0851206 0)
(10.1852 0.0819666 0)
(10.182 0.0784163 0)
(10.1779 0.0742426 0)
(10.1732 0.0690153 0)
(10.1679 0.0619197 0)
(10.1614 0.0516677 0)
(10.0005 0.0152715 0)
(10.0336 0.0714085 0)
(10.0713 0.0926599 0)
(10.1032 0.0994473 0)
(10.1265 0.0986124 0)
(10.1434 0.096404 0)
(10.1568 0.09431 0)
(10.1682 0.0924064 0)
(10.1782 0.0904572 0)
(10.1871 0.0883278 0)
(10.1951 0.0859685 0)
(10.2025 0.0833471 0)
(10.2092 0.0804003 0)
(10.2156 0.0770025 0)
(10.2217 0.0729283 0)
(10.2275 0.0677956 0)
(10.2329 0.0610186 0)
(10.2367 0.0520334 0)
(10.0005 0.0128047 0)
(10.0258 0.0613877 0)
(10.0589 0.0829891 0)
(10.088 0.0913916 0)
(10.1105 0.0924336 0)
(10.1278 0.0913867 0)
(10.142 0.0899191 0)
(10.1544 0.088358 0)
(10.1657 0.0866309 0)
(10.1761 0.0846642 0)
(10.1858 0.0824224 0)
(10.195 0.0798731 0)
(10.2038 0.0769523 0)
(10.2122 0.0735403 0)
(10.2204 0.0694383 0)
(10.2282 0.0643495 0)
(10.2353 0.0579176 0)
(10.241 0.0499935 0)
(10.0004 0.010744 0)
(10.0198 0.05254 0)
(10.0482 0.0737506 0)
(10.0746 0.0832723 0)
(10.0963 0.0858679 0)
(10.1136 0.0858719 0)
(10.1282 0.0849939 0)
(10.141 0.0837487 0)
(10.1528 0.0822073 0)
(10.1638 0.0803596 0)
(10.1741 0.0781905 0)
(10.1839 0.0756734 0)
(10.1932 0.0727504 0)
(10.2022 0.0693172 0)
(10.2109 0.0652154 0)
(10.2191 0.0602409 0)
(10.2264 0.0542146 0)
(10.2324 0.0471889 0)
(10.0004 0.00902464 0)
(10.0153 0.0448568 0)
(10.0392 0.0650813 0)
(10.0628 0.0752001 0)
(10.0832 0.078987 0)
(10.1003 0.0799117 0)
(10.115 0.0795989 0)
(10.1281 0.0786729 0)
(10.1401 0.0773175 0)
(10.1513 0.0755833 0)
(10.1618 0.0734812 0)
(10.1718 0.0709964 0)
(10.1814 0.0680833 0)
(10.1905 0.0646609 0)
(10.1992 0.0606159 0)
(10.2073 0.0558274 0)
(10.2146 0.0502366 0)
(10.2206 0.0439757 0)
(10.0003 0.00758429 0)
(10.0119 0.0382189 0)
(10.0319 0.0570689 0)
(10.0526 0.0673409 0)
(10.0715 0.071939 0)
(10.0879 0.0736005 0)
(10.1024 0.073791 0)
(10.1155 0.0731737 0)
(10.1275 0.0720066 0)
(10.1388 0.0703907 0)
(10.1494 0.068363 0)
(10.1595 0.0659252 0)
(10.1691 0.0630487 0)
(10.1782 0.0596792 0)
(10.1867 0.0557479 0)
(10.1946 0.0512002 0)
(10.2017 0.0460496 0)
(10.2077 0.0404481 0)
(10.0003 0.00637043 0)
(10.0093 0.0324856 0)
(10.026 0.0497211 0)
(10.0441 0.0598011 0)
(10.0612 0.0648756 0)
(10.0767 0.0670706 0)
(10.0907 0.0676672 0)
(10.1035 0.0673197 0)
(10.1154 0.0663281 0)
(10.1266 0.0648289 0)
(10.1371 0.062883 0)
(10.1471 0.0605091 0)
(10.1566 0.057698 0)
(10.1655 0.0544223 0)
(10.1739 0.0506521 0)
(10.1816 0.0463804 0)
(10.1884 0.0416598 0)
(10.1943 0.0366342 0)
(10.0002 0.00534584 0)
(10.0074 0.0275194 0)
(10.0213 0.043006 0)
(10.037 0.0526238 0)
(10.0525 0.0578945 0)
(10.0669 0.0604343 0)
(10.0802 0.0613304 0)
(10.0926 0.0611985 0)
(10.1041 0.0603558 0)
(10.115 0.0589631 0)
(10.1253 0.0571004 0)
(10.1351 0.0548035 0)
(10.1443 0.0520819 0)
(10.153 0.048933 0)
(10.1611 0.0453575 0)
(10.1685 0.0413796 0)
(10.1751 0.037069 0)
(10.1809 0.0325516 0)
(10.0002 0.00454753 0)
(10.006 0.0233687 0)
(10.0176 0.0371241 0)
(10.0314 0.0460973 0)
(10.0454 0.0513302 0)
(10.0588 0.0540383 0)
(10.0713 0.0551241 0)
(10.0832 0.0551453 0)
(10.0943 0.0544176 0)
(10.1048 0.0531146 0)
(10.1148 0.0513308 0)
(10.1242 0.0491169 0)
(10.1332 0.0464989 0)
(10.1415 0.043494 0)
(10.1493 0.0401242 0)
(10.1564 0.0364315 0)
(10.1628 0.0324897 0)
(10.1685 0.0284054 0)
(10.0001 0.00381075 0)
(10.005 0.0199849 0)
(10.0149 0.0321528 0)
(10.0271 0.0404089 0)
(10.0398 0.0454477 0)
(10.0523 0.0481871 0)
(10.0642 0.0493684 0)
(10.0755 0.0494859 0)
(10.0862 0.0488412 0)
(10.0963 0.0476114 0)
(10.106 0.0459005 0)
(10.1151 0.0437702 0)
(10.1236 0.0412597 0)
(10.1317 0.0384002 0)
(10.1392 0.0352276 0)
(10.146 0.0317925 0)
(10.1522 0.0281666 0)
(10.1577 0.02444 0)
(10.0001 0.00307842 0)
(10.0041 0.0165481 0)
(10.0125 0.0269321 0)
(10.023 0.0342433 0)
(10.0344 0.0388936 0)
(10.0459 0.04153 0)
(10.057 0.0427269 0)
(10.0677 0.0429 0)
(10.0779 0.0423221 0)
(10.0876 0.0411657 0)
(10.0968 0.0395395 0)
(10.1055 0.0375139 0)
(10.1137 0.0351392 0)
(10.1214 0.0324583 0)
(10.1285 0.0295164 0)
(10.1351 0.0263678 0)
(10.141 0.0230784 0)
(10.1463 0.0197224 0)
(10.0001 0.00235306 0)
(10.0033 0.0130918 0)
(10.0103 0.0215235 0)
(10.0194 0.0276548 0)
(10.0294 0.031691 0)
(10.0398 0.0340507 0)
(10.0501 0.0351484 0)
(10.0601 0.0353102 0)
(10.0698 0.0347674 0)
(10.079 0.0336772 0)
(10.0877 0.0321458 0)
(10.096 0.0302477 0)
(10.1038 0.0280399 0)
(10.1111 0.025572 0)
(10.1178 0.0228937 0)
(10.124 0.0200579 0)
(10.1297 0.0171223 0)
(10.1348 0.0141462 0)
(10.0001 0.00163468 0)
(10.0027 0.00963969 0)
(10.0085 0.015973 0)
(10.0162 0.0206912 0)
(10.025 0.0238675 0)
(10.0344 0.025744 0)
(10.0438 0.0265926 0)
(10.0531 0.0266469 0)
(10.0621 0.0260863 0)
(10.0708 0.0250416 0)
(10.079 0.0236077 0)
(10.0869 0.0218555 0)
(10.0942 0.0198424 0)
(10.1011 0.0176187 0)
(10.1075 0.0152323 0)
(10.1134 0.0127312 0)
(10.1188 0.0101629 0)
(10.1238 0.00757316 0)
(10.0001 0.000912819 0)
(10.0022 0.00617619 0)
(10.0071 0.0102752 0)
(10.0137 0.0133549 0)
(10.0214 0.0154193 0)
(10.0298 0.016586 0)
(10.0384 0.0170091 0)
(10.047 0.0168338 0)
(10.0554 0.0161805 0)
(10.0635 0.0151439 0)
(10.0712 0.0137972 0)
(10.0786 0.0121993 0)
(10.0856 0.0103995 0)
(10.0921 0.00844199 0)
(10.0982 0.00636766 0)
(10.1038 0.00421556 0)
(10.109 0.00202258 0)
(10.1137 -0.00017773 0)
(10.0001 0.000156926 0)
(10.0019 0.00261653 0)
(10.0061 0.00431906 0)
(10.0119 0.00553145 0)
(10.0189 0.00623311 0)
(10.0265 0.00645971 0)
(10.0344 0.00627132 0)
(10.0423 0.00573136 0)
(10.0502 0.00489741 0)
(10.0578 0.00381893 0)
(10.0651 0.00253812 0)
(10.0721 0.00109183 0)
(10.0787 -0.000486607 0)
(10.0848 -0.00216619 0)
(10.0906 -0.00391762 0)
(10.096 -0.00571335 0)
(10.101 -0.00752783 0)
(10.1056 -0.0093384 0)
(10.0001 -0.000706847 0)
(10.0018 -0.00126341 0)
(10.0057 -0.00222789 0)
(10.0112 -0.00315765 0)
(10.0178 -0.0040743 0)
(10.025 -0.00500347 0)
(10.0325 -0.00596911 0)
(10.0401 -0.00699001 0)
(10.0476 -0.008078 0)
(10.0548 -0.00923795 0)
(10.0618 -0.0104686 0)
(10.0685 -0.0117638 0)
(10.0748 -0.0131134 0)
(10.0807 -0.0145049 0)
(10.0863 -0.0159244 0)
(10.0915 -0.0173572 0)
(10.0963 -0.0187894 0)
(10.1008 -0.020208 0)
(10.0001 -0.0014925 0)
(10.002 -0.00546042 0)
(10.0062 -0.00928747 0)
(10.0121 -0.0124833 0)
(10.019 -0.0150783 0)
(10.0264 -0.0171763 0)
(10.0341 -0.0189026 0)
(10.0417 -0.0203726 0)
(10.0492 -0.0216781 0)
(10.0564 -0.0228851 0)
(10.0633 -0.024038 0)
(10.0698 -0.0251637 0)
(10.076 -0.0262768 0)
(10.0818 -0.0273832 0)
(10.0872 -0.0284836 0)
(10.0923 -0.0295751 0)
(10.0971 -0.0306534 0)
(10.1015 -0.0317134 0)
(10.0001 -0.00227349 0)
(10.0024 -0.00912016 0)
(10.0074 -0.0153359 0)
(10.0141 -0.0202995 0)
(10.0218 -0.0240982 0)
(10.0299 -0.0269514 0)
(10.0381 -0.0291063 0)
(10.0461 -0.0307788 0)
(10.0538 -0.0321338 0)
(10.0611 -0.0332877 0)
(10.0681 -0.0343176 0)
(10.0746 -0.0352727 0)
(10.0808 -0.0361821 0)
(10.0866 -0.0370626 0)
(10.092 -0.0379224 0)
(10.0971 -0.0387648 0)
(10.1018 -0.03959 0)
(10.1062 -0.0403969 0)
(10.0001 -0.00314256 0)
(10.003 -0.0130337 0)
(10.0093 -0.0216377 0)
(10.0173 -0.0281904 0)
(10.0263 -0.0329246 0)
(10.0354 -0.03625 0)
(10.0443 -0.0385841 0)
(10.0528 -0.0402624 0)
(10.0608 -0.0415249 0)
(10.0684 -0.0425311 0)
(10.0755 -0.0433822 0)
(10.0821 -0.0441398 0)
(10.0884 -0.0448406 0)
(10.0942 -0.0455059 0)
(10.0996 -0.0461472 0)
(10.1047 -0.0467704 0)
(10.1095 -0.0473778 0)
(10.1139 -0.04797 0)
(10.0002 -0.00414748 0)
(10.004 -0.0174355 0)
(10.012 -0.0284671 0)
(10.022 -0.0364006 0)
(10.0325 -0.0417573 0)
(10.0429 -0.0452401 0)
(10.0526 -0.0474923 0)
(10.0617 -0.048983 0)
(10.0701 -0.0500222 0)
(10.0779 -0.0507993 0)
(10.0852 -0.0514256 0)
(10.0919 -0.0519648 0)
(10.0982 -0.0524528 0)
(10.1041 -0.0529101 0)
(10.1096 -0.0533479 0)
(10.1147 -0.0537722 0)
(10.1194 -0.0541856 0)
(10.1239 -0.0545887 0)
(10.0002 -0.00532015 0)
(10.0054 -0.0225407 0)
(10.016 -0.0359961 0)
(10.0283 -0.0450372 0)
(10.0407 -0.0506443 0)
(10.0524 -0.0539463 0)
(10.063 -0.0558577 0)
(10.0726 -0.0569845 0)
(10.0813 -0.05769 0)
(10.0893 -0.0581741 0)
(10.0967 -0.058542 0)
(10.1035 -0.0588478 0)
(10.1098 -0.0591197 0)
(10.1157 -0.0593727 0)
(10.1211 -0.0596156 0)
(10.1262 -0.0598528 0)
(10.1309 -0.0600864 0)
(10.1352 -0.0603164 0)
(10.0002 -0.00663416 0)
(10.0073 -0.0285764 0)
(10.0213 -0.0442965 0)
(10.0364 -0.0540996 0)
(10.0509 -0.0595194 0)
(10.0638 -0.0622876 0)
(10.0752 -0.0636087 0)
(10.0851 -0.0642167 0)
(10.094 -0.0645015 0)
(10.102 -0.0646479 0)
(10.1093 -0.0647369 0)
(10.116 -0.0648016 0)
(10.1221 -0.0648561 0)
(10.1278 -0.0649075 0)
(10.1331 -0.0649602 0)
(10.1379 -0.0650173 0)
(10.1424 -0.0650801 0)
(10.1466 -0.0651472 0)
(10.0001 -0.00789078 0)
(10.0099 -0.0357887 0)
(10.028 -0.0533294 0)
(10.0461 -0.0634667 0)
(10.0627 -0.068201 0)
(10.0767 -0.0700859 0)
(10.0885 -0.0705998 0)
(10.0985 -0.0705767 0)
(10.1072 -0.07039 0)
(10.115 -0.0701789 0)
(10.122 -0.0699814 0)
(10.1283 -0.0698013 0)
(10.1341 -0.0696353 0)
(10.1394 -0.0694815 0)
(10.1441 -0.0693408 0)
(10.1485 -0.0692158 0)
(10.1525 -0.0691084 0)
(10.1561 -0.0690158 0)
(9.99958 -0.00886783 0)
(10.0131 -0.0442327 0)
(10.036 -0.0629339 0)
(10.0574 -0.0729378 0)
(10.076 -0.0764919 0)
(10.0909 -0.0771995 0)
(10.1029 -0.0767399 0)
(10.1127 -0.0759978 0)
(10.1208 -0.0752882 0)
(10.1278 -0.0746813 0)
(10.1338 -0.074163 0)
(10.139 -0.0737044 0)
(10.1435 -0.073285 0)
(10.1474 -0.0728941 0)
(10.1508 -0.0725295 0)
(10.1537 -0.0721939 0)
(10.1562 -0.0718921 0)
(10.1583 -0.0716226 0)
(9.99619 -0.00214286 0)
(10.017 -0.0554292 0)
(10.0459 -0.0731795 0)
(10.0724 -0.0823323 0)
(10.0937 -0.0842962 0)
(10.1091 -0.0834869 0)
(10.1198 -0.0817846 0)
(10.127 -0.080107 0)
(10.1317 -0.0786939 0)
(10.1344 -0.0775318 0)
(10.1356 -0.0765459 0)
(10.1356 -0.0756702 0)
(10.1345 -0.0748635 0)
(10.1325 -0.0741044 0)
(10.1296 -0.0733851 0)
(10.1259 -0.0727075 0)
(10.1215 -0.0720811 0)
(10.1166 -0.0715159 0)
(9.99374 -0.0631229 0)
(10.0233 -0.0517951 0)
(10.0719 -0.0850604 0)
(10.1058 -0.0942309 0)
(10.1236 -0.0928949 0)
(10.1264 -0.0888786 0)
(10.1169 -0.0844725 0)
(10.0982 -0.0805983 0)
(10.0726 -0.0773632 0)
(10.0418 -0.0746365 0)
(10.0073 -0.0722576 0)
(9.97001 -0.0701051 0)
(9.93067 -0.0681052 0)
(9.88996 -0.0662171 0)
(9.84841 -0.064422 0)
(9.80648 -0.0627169 0)
(9.76453 -0.061114 0)
(9.72286 -0.0596454 0)
(9.85145 1.36809 0)
(10.1935 -0.419339 0)
(10.1386 -0.237355 0)
(10.0328 -0.146649 0)
(9.86743 -0.10044 0)
(9.66947 -0.0731141 0)
(9.46742 -0.0556091 0)
(9.27664 -0.0443702 0)
(9.10314 -0.0372643 0)
(8.94746 -0.0327704 0)
(8.80794 -0.0298471 0)
(8.68243 -0.0278252 0)
(8.56891 -0.026306 0)
(8.46571 -0.0250633 0)
(8.37147 -0.0239782 0)
(8.28507 -0.0229959 0)
(8.20561 -0.0221038 0)
(8.13231 -0.0213572 0)
(0.00078496 -0.00354026 0)
(0.00485606 -0.00377059 0)
(0.0148336 -0.0064322 1.18117e-19)
(0.0246895 -0.00597034 0)
(0.031935 -0.00419033 0)
(0.0358859 -0.00214362 0)
(0.0366652 -0.000262661 0)
(0.0347175 0.00122493 0)
(0.0306973 0.00229241 -9.02105e-20)
(0.0251371 0.00306464 0)
(0.0184257 0.00365781 0)
(0.0108171 0.00415702 0)
(0.00246871 0.00459959 0)
(-0.00656492 0.00494696 0)
(-0.0163113 0.00525133 0)
(-0.0267971 0.00556924 0)
(-0.038082 0.00591578 1.44761e-19)
(-0.0502196 0.0062962 0)
(-0.0632862 0.0067102 -6.20241e-20)
(-0.0773418 0.00715171 5.74771e-20)
(-0.0924521 0.00761825 0)
(-0.10868 0.00810509 0)
(-0.12605 0.00860489 0)
(-0.144606 0.0091133 0)
(-0.164371 0.00962527 0)
(-0.185346 0.0101299 0)
(-0.207536 0.0106223 -3.433e-20)
(-0.23092 0.0110972 0)
(-0.255475 0.0115484 2.99004e-20)
(-0.281162 0.0119715 0)
(-0.307941 0.0123646 -2.6197e-20)
(-0.33576 0.0127258 0)
(-0.364561 0.0130529 0)
(-0.3943 0.0133436 2.17561e-20)
(-0.424899 0.0135943 0)
(-0.456318 0.0138141 0)
(-0.488486 0.0139985 3.6733e-20)
(-0.521318 0.0141485 0)
(-0.554819 0.0142774 0)
(-0.588894 0.0143728 3.15107e-20)
(-0.623541 0.0144482 0)
(-0.658653 0.0144914 1.43419e-20)
(-0.694227 0.0145206 0)
(-0.730255 0.0145349 -2.62761e-20)
(-0.766632 0.0145203 0)
(-0.803356 0.0144991 0)
(-0.84044 0.0144654 0)
(-0.87774 0.014402 0)
(-0.915364 0.0143482 0)
(-0.95315 0.0142627 2.08739e-20)
(-0.991204 0.0141902 0)
(-1.02937 0.0140862 0)
(-1.06775 0.0139965 0)
(-1.1062 0.0138644 0)
(-1.14471 0.0137425 0)
(-1.18338 0.013634 0)
(-1.22202 0.0134771 1.67879e-20)
(-1.26065 0.0133283 0)
(-1.29927 0.0131962 -7.95167e-21)
(-1.33785 0.0130642 -1.54965e-20)
(-1.3763 0.0129201 0)
(-1.41458 0.0128052 1.47505e-20)
(-1.45267 0.0127336 0)
(-1.49051 0.0127291 -1.40844e-20)
(-1.52809 0.0128121 0)
(-1.56537 0.0129875 1.34943e-20)
(-1.60237 0.0132444 1.32301e-20)
(-1.63908 0.0135218 -1.29874e-20)
(-1.67553 0.0137089 0)
(-1.71174 0.0136221 0)
(-1.74774 0.0127762 1.24073e-20)
(-1.78306 0.00932532 0)
(-1.81712 0.00705765 0)
(-1.85052 0.00575338 -2.37674e-20)
(-1.88371 0.00607827 0)
(-1.91655 0.00573758 0)
(-1.94792 0.0095961 0)
(-1.97935 0.010589 1.11608e-20)
(-2.01025 0.0128858 0)
(-2.04092 0.0111456 -2.17229e-20)
(-2.06924 0.01001 1.08299e-20)
(-2.09986 0.00351566 0)
(-2.12581 0.00885297 -1.07968e-20)
(-2.15345 -0.00369242 -2.11233e-20)
(-2.17436 0.00557584 -1.046e-20)
(-2.19727 -0.00110756 0)
(-2.21849 0.0126882 0)
(-2.24221 0.0120444 0)
(-2.25798 0.0216494 0)
(-2.27998 0.0641048 0)
(-2.31321 0.121069 -2.04185e-20)
(-2.33732 -0.0553074 0)
(-2.33166 -0.0788423 0)
(-2.3286 -0.125519 -1.0811e-20)
(-2.33391 0.0433894 0)
(-2.36383 0.105082 0)
(-2.40051 0.0860969 2.15193e-20)
(-2.38921 -0.0227253 0)
(-2.37919 -0.0643834 0)
(-2.39418 0.103481 0)
(-2.40731 -0.0301399 0)
(-2.41306 0.0655091 0)
(-2.41234 -0.013595 0)
(-2.4135 -0.00581849 0)
(-2.40656 -0.00275217 1.7788e-20)
(-2.40401 -0.00164605 0)
(-2.39773 -0.00195509 0)
(-2.39017 -0.00232338 0)
(-2.38117 -0.00274101 1.525e-20)
(-2.37048 -0.00313515 -1.45595e-20)
(-2.35824 -0.00353353 0)
(-2.34445 -0.00394265 1.31188e-20)
(-2.32909 -0.00433177 0)
(-2.31214 -0.00471581 0)
(-2.29362 -0.00509792 1.07931e-20)
(-2.27356 -0.00548915 0)
(-2.25194 -0.00586169 0)
(-2.22878 -0.00622955 0)
(-2.20411 -0.00658952 0)
(-2.17794 -0.00694025 0)
(-2.15028 -0.00728209 0)
(-2.12119 -0.00760263 0)
(-2.09069 -0.00788227 -3.38313e-21)
(-2.05881 -0.00813953 0)
(-2.02562 -0.00827348 1.19353e-21)
(-1.9911 -0.00815306 0)
(-1.95546 -0.0076942 0)
(-1.91857 -0.00665045 2.39021e-21)
(-1.88033 -0.00455124 0)
(-1.84057 -0.000548403 0)
(-1.79916 0.0065817 0)
(-1.75589 0.0141163 -1.55749e-20)
(-1.7107 0.0245858 0)
(-1.67537 -0.0052212 0)
(-1.62873 -0.0106209 0)
(-1.58291 -0.0126438 2.99572e-20)
(-1.5314 -0.00833255 0)
(-1.48546 -0.012288 -1.88505e-20)
(-1.43144 -0.00508089 2.0801e-20)
(-1.38078 -0.00334272 0)
(-1.32922 -0.00589277 0)
(-1.27682 -0.00683635 -5.57148e-20)
(-1.22284 -0.00671046 0)
(-1.16727 -0.00570489 0)
(-1.11355 -0.00951739 0)
(-1.05637 -0.00916733 -7.82337e-20)
(-0.999888 -0.00546839 0)
(-0.942522 -0.00719586 0)
(-0.884858 -0.00712054 0)
(-0.827412 -0.00906311 0)
(-0.768615 -0.0107749 0)
(-0.709655 -0.010298 1.23263e-19)
(-0.649402 -0.0088312 0)
(-0.59102 -0.00988524 1.42366e-19)
(-0.530889 -0.0117476 0)
(-0.470562 -0.0116205 1.63768e-19)
(-0.410588 -0.0105002 0)
(-0.351102 -0.0121339 0)
(-0.290072 -0.0134427 0)
(-0.228692 -0.0139889 0)
(-0.166638 -0.0145767 0)
(-0.10392 -0.0151178 0)
(-0.040595 -0.0155489 0)
(0.0233121 -0.0158927 0)
(0.0875939 -0.0152062 -6.32464e-19)
(0.153246 -0.0143021 0)
(0.225093 -0.0156105 0)
(0.315 0.00142801 2.80931e-19)
(0.378647 -0.0164521 0)
(0.442962 -0.0176029 0)
(0.503627 -0.0161164 2.43555e-19)
(0.562744 -0.0164486 0)
(0.621697 -0.016262 -2.41219e-19)
(0.678501 -0.0145316 0)
(0.731711 -0.0146367 0)
(0.779145 -0.0199231 0)
(0.825814 -0.0506346 0)
(0.839171 -0.0307546 0)
(0.889938 -0.015363 0)
(0.965803 0.106763 0)
(0.0012537 -0.0176509 -4.1001e-19)
(0.0101876 -0.0238542 -4.79273e-20)
(0.0150535 -0.0208072 2.59324e-20)
(0.0166101 -0.0141209 0)
(0.0155963 -0.00649285 0)
(0.0124267 0.000884226 1.54046e-20)
(0.00728588 0.0074436 -2.8994e-20)
(0.000290104 0.012974 0)
(-0.0084488 0.0174672 4.00789e-20)
(-0.0187991 0.0210475 -9.24623e-24)
(-0.0306157 0.0239089 0)
(-0.0437537 0.0262584 2.40866e-20)
(-0.0580815 0.0282789 0)
(-0.0735079 0.0301227 0)
(-0.0899609 0.0318998 0)
(-0.107395 0.0336795 0)
(-0.12579 0.0355015 -4.12419e-20)
(-0.145136 0.037384 0)
(-0.165423 0.0393255 0)
(-0.18665 0.0413166 -3.76531e-20)
(-0.208807 0.0433381 0)
(-0.231885 0.0453709 -3.54251e-20)
(-0.255862 0.0473922 -1.71956e-20)
(-0.280712 0.0493782 -3.3309e-20)
(-0.306401 0.0513081 3.22833e-20)
(-0.332892 0.0531626 1.56281e-20)
(-0.360152 0.0549245 4.54954e-20)
(-0.388134 0.0565781 0)
(-0.41679 0.05811 1.42544e-20)
(-0.44608 0.0595157 -1.38165e-20)
(-0.475961 0.0607908 -2.67876e-20)
(-0.506391 0.0619343 1.29862e-20)
(-0.537324 0.0629479 -1.25967e-20)
(-0.568738 0.0638379 0)
(-0.600591 0.0646058 -1.18655e-20)
(-0.632843 0.065253 0)
(-0.665457 0.0657943 0)
(-0.698414 0.0662395 1.08827e-20)
(-0.73169 0.0665912 0)
(-0.765261 0.0668613 1.02994e-20)
(-0.799102 0.0670514 0)
(-0.833198 0.0671738 0)
(-0.867521 0.0672309 -9.48836e-21)
(-0.902065 0.0672288 0)
(-0.936803 0.0671708 0)
(-0.971718 0.0670643 2.64867e-20)
(-1.0068 0.0669073 0)
(-1.04202 0.0667093 0)
(-1.07738 0.0664647 8.24393e-21)
(-1.11285 0.066185 -1.60936e-20)
(-1.14842 0.0658606 3.03538e-23)
(-1.18406 0.0655014 0)
(-1.21977 0.0650989 -3.01762e-20)
(-1.25553 0.0646642 -1.48093e-20)
(-1.2913 0.0641897 0)
(-1.32708 0.0636675 -1.42242e-20)
(-1.36283 0.0631125 1.39473e-20)
(-1.39855 0.062516 0)
(-1.4342 0.0618673 1.34225e-20)
(-1.46975 0.0611759 -3.94622e-20)
(-1.50519 0.0604395 2.58052e-20)
(-1.54049 0.0596545 0)
(-1.57563 0.0588294 2.49156e-20)
(-1.61058 0.0579729 -3.67089e-20)
(-1.64532 0.057091 -1.20454e-20)
(-1.67984 0.0562028 2.36373e-20)
(-1.71411 0.0553217 1.16605e-20)
(-1.74813 0.0544516 2.29255e-20)
(-1.78185 0.0535771 -2.26188e-20)
(-1.81526 0.0526551 0)
(-1.8483 0.051594 1.10644e-20)
(-1.88108 0.0502789 2.18541e-20)
(-1.91363 0.0490045 0)
(-1.94564 0.0478404 0)
(-1.97679 0.0466086 0)
(-2.00721 0.0449314 2.05984e-20)
(-2.03696 0.0438925 0)
(-2.06589 0.0428279 -2.00651e-20)
(-2.09407 0.0415099 -9.96286e-21)
(-2.12151 0.0400948 0)
(-2.14861 0.0394786 0)
(-2.17403 0.0374238 0)
(-2.19852 0.0357202 -9.93759e-21)
(-2.22166 0.0321178 2.9357e-20)
(-2.24466 0.0302655 0)
(-2.26581 0.0284206 -1.85523e-20)
(-2.28561 0.0276776 0)
(-2.30402 0.0255696 0)
(-2.32321 0.0240862 3.47608e-20)
(-2.33888 0.0235935 0)
(-2.34765 0.0232226 -1.85115e-20)
(-2.35959 0.0145423 1.9172e-20)
(-2.37723 0.0138623 0)
(-2.39315 0.0119507 0)
(-2.40605 0.0156973 0)
(-2.40816 0.0159554 0)
(-2.40703 0.0104628 -1.68513e-20)
(-2.41813 0.00590209 0)
(-2.42736 0.00332242 3.15682e-20)
(-2.42689 0.00962954 0)
(-2.42567 0.00161354 0)
(-2.42352 0.00154943 1.4012e-20)
(-2.42191 -0.002334 0)
(-2.41718 -0.00365453 0)
(-2.41203 -0.00610887 0)
(-2.40436 -0.00743823 -3.61953e-20)
(-2.3953 -0.00905532 0)
(-2.38472 -0.010657 1.10049e-20)
(-2.37255 -0.0122714 2.09978e-20)
(-2.3588 -0.013864 9.92598e-21)
(-2.34344 -0.0154328 -9.37402e-21)
(-2.32649 -0.0169836 8.88639e-21)
(-2.30793 -0.0184931 8.24422e-21)
(-2.28777 -0.0199719 7.66581e-21)
(-2.26602 -0.0214172 -1.42486e-20)
(-2.24267 -0.0228377 0)
(-2.21776 -0.024212 0)
(-2.19126 -0.025549 0)
(-2.16323 -0.026846 9.40011e-21)
(-2.13364 -0.0281004 0)
(-2.10254 -0.0293095 0)
(-2.06994 -0.0304704 -2.72517e-21)
(-2.03588 -0.0315645 -4.25899e-21)
(-2.00036 -0.0326128 0)
(-1.96343 -0.033607 0)
(-1.92515 -0.0345309 0)
(-1.88549 -0.0354005 0)
(-1.84456 -0.0362284 -2.78e-21)
(-1.80237 -0.0370495 0)
(-1.75899 -0.0379525 0)
(-1.71431 -0.039061 0)
(-1.66824 -0.0403249 0)
(-1.62019 -0.0391002 0)
(-1.56956 -0.0396483 0)
(-1.5194 -0.0417311 -6.84836e-21)
(-1.46806 -0.0433523 -2.55136e-22)
(-1.41559 -0.0440655 0)
(-1.36134 -0.0444061 0)
(-1.30656 -0.0449853 2.27043e-22)
(-1.25058 -0.0448398 2.17644e-20)
(-1.19334 -0.0447442 -2.34814e-20)
(-1.13528 -0.0453321 -2.52057e-20)
(-1.07668 -0.0459064 -2.7018e-20)
(-1.017 -0.0458411 0)
(-0.956289 -0.0459511 3.01932e-20)
(-0.895517 -0.046561 0)
(-0.833692 -0.0458587 -3.42483e-20)
(-0.771431 -0.0462434 0)
(-0.708533 -0.045936 7.49971e-20)
(-0.645066 -0.045758 -3.90655e-20)
(-0.581433 -0.0460839 0)
(-0.517321 -0.0459636 0)
(-0.452801 -0.0457185 4.42853e-20)
(-0.387635 -0.0452079 4.61205e-20)
(-0.322621 -0.0452458 4.77329e-20)
(-0.257611 -0.0451905 4.96029e-20)
(-0.191902 -0.0444883 1.02587e-19)
(-0.12595 -0.0443645 0)
(-0.0600581 -0.0444008 0)
(0.00600696 -0.0443455 1.12661e-19)
(0.0723397 -0.0442352 0)
(0.138829 -0.0441158 5.79964e-20)
(0.20525 -0.0438383 1.18305e-19)
(0.271528 -0.0434366 0)
(0.337609 -0.0429719 0)
(0.403234 -0.0429834 6.14598e-20)
(0.465633 -0.0445778 6.18884e-20)
(0.524411 -0.0386566 0)
(0.582739 -0.0388295 -1.00731e-19)
(0.644161 -0.0379744 0)
(0.707395 -0.036483 1.05975e-19)
(0.769774 -0.0365145 0)
(0.831858 -0.0359905 -5.48321e-20)
(0.894129 -0.0349583 1.11363e-19)
(0.956462 -0.0335811 0)
(1.01994 -0.0322767 0)
(1.08285 -0.0342334 -1.66111e-19)
(1.1506 -0.0285954 0)
(1.19823 -0.0296932 0)
(1.2213 -0.00709477 -1.48343e-19)
(0.000601768 -0.0255016 3.78615e-19)
(0.00321012 -0.0314989 2.67308e-19)
(0.00176082 -0.0208023 6.79605e-20)
(-0.00200692 -0.0089323 -8.24388e-24)
(-0.00752177 0.00263305 4.06084e-20)
(-0.0144875 0.0133868 -3.58172e-20)
(-0.0227834 0.0230635 6.57925e-20)
(-0.0323766 0.0315507 -3.09496e-20)
(-0.0432584 0.0388528 0)
(-0.0554241 0.0450714 -2.84629e-20)
(-0.0688487 0.0503704 0)
(-0.0834866 0.0549435 0)
(-0.0992832 0.0589866 -2.6053e-20)
(-0.116172 0.0626705 0)
(-0.134092 0.0661349 -4.94617e-20)
(-0.152978 0.0694769 0)
(-0.172782 0.0727638 -2.35048e-20)
(-0.193449 0.0760234 2.29126e-20)
(-0.21494 0.0792683 0)
(-0.237212 0.0824909 -1.15004e-23)
(-0.26023 0.0856741 0)
(-0.283956 0.0887926 2.06433e-20)
(-0.308348 0.0918183 0)
(-0.333378 0.0947281 -5.8734e-20)
(-0.358998 0.0974944 1.90654e-20)
(-0.385182 0.100101 -1.85385e-20)
(-0.411894 0.10253 0)
(-0.439097 0.10477 -1.75731e-20)
(-0.466765 0.106817 1.71058e-20)
(-0.494869 0.108666 1.11357e-23)
(-0.523383 0.110317 1.62249e-20)
(-0.552281 0.111774 -1.57993e-20)
(-0.581534 0.113043 -3.07725e-20)
(-0.611132 0.114131 0)
(-0.641055 0.115053 -1.46085e-20)
(-0.671278 0.115817 2.84609e-20)
(-0.701784 0.116437 2.77562e-20)
(-0.732557 0.116919 2.71008e-20)
(-0.763593 0.117276 2.64284e-20)
(-0.794866 0.117519 2.5804e-20)
(-0.826369 0.117655 2.52066e-20)
(-0.858087 0.117694 2.46322e-20)
(-0.890007 0.117644 0)
(-0.92212 0.117507 2.35514e-20)
(-0.954411 0.117294 0)
(-0.986864 0.117006 2.30195e-23)
(-1.01947 0.116649 0)
(-1.05221 0.116228 0)
(-1.08508 0.115741 0)
(-1.11806 0.115189 0)
(-1.15113 0.114576 0)
(-1.18427 0.113902 0)
(-1.21749 0.113166 1.96188e-20)
(-1.25074 0.112368 -1.92571e-20)
(-1.28402 0.111505 1.89095e-20)
(-1.3173 0.110577 3.71622e-20)
(-1.35057 0.109586 0)
(-1.38381 0.108524 -1.79485e-20)
(-1.41699 0.10739 -1.76417e-20)
(-1.45009 0.106186 0)
(-1.48309 0.104911 0)
(-1.51596 0.103566 0)
(-1.54868 0.102158 3.29676e-20)
(-1.58123 0.100687 -1.62286e-20)
(-1.61356 0.0991713 -1.59668e-20)
(-1.64564 0.097618 -1.56974e-20)
(-1.67745 0.0960374 -1.54837e-20)
(-1.70893 0.0944276 0)
(-1.74006 0.0927673 -1.50716e-20)
(-1.77081 0.0910163 -1.49001e-20)
(-1.80121 0.0891188 -1.47394e-20)
(-1.83129 0.0870655 -1.46199e-20)
(-1.86103 0.0849197 0)
(-1.89031 0.0827035 0)
(-1.91899 0.0803696 0)
(-1.947 0.0779676 4.18267e-20)
(-1.97416 0.0757019 2.74724e-20)
(-2.00024 0.0733311 0)
(-2.02541 0.0707962 0)
(-2.04975 0.0682311 0)
(-2.07322 0.0656126 0)
(-2.09568 0.0625729 0)
(-2.11738 0.059133 1.30623e-20)
(-2.13836 0.0552423 -2.55861e-20)
(-2.15875 0.0518186 1.2525e-20)
(-2.17783 0.0486964 -1.22072e-20)
(-2.19553 0.0459356 0)
(-2.21184 0.0431498 0)
(-2.22676 0.0405806 0)
(-2.23952 0.0380523 2.24071e-20)
(-2.25038 0.0342511 0)
(-2.26205 0.0287536 2.21033e-20)
(-2.27485 0.0247081 0)
(-2.28628 0.0222959 -1.09319e-22)
(-2.29433 0.0215586 0)
(-2.2977 0.0199321 1.92733e-20)
(-2.29987 0.0152953 -1.91613e-20)
(-2.30402 0.0105243 1.87424e-20)
(-2.30756 0.00756129 0)
(-2.30763 0.0058466 -3.53436e-20)
(-2.30553 0.00161109 1.70888e-20)
(-2.30297 -0.00230057 2.51647e-23)
(-2.29934 -0.00609558 0)
(-2.2942 -0.00920872 1.55213e-20)
(-2.28763 -0.0124052 0)
(-2.27919 -0.015298 0)
(-2.26916 -0.0182317 0)
(-2.25759 -0.0211318 0)
(-2.24448 -0.0240049 1.22768e-20)
(-2.22981 -0.026841 0)
(-2.21357 -0.0296315 1.10079e-20)
(-2.19577 -0.0323756 0)
(-2.1764 -0.035063 0)
(-2.15547 -0.0376948 1.79951e-20)
(-2.13297 -0.0402682 -1.66251e-20)
(-2.10893 -0.0427817 0)
(-2.08332 -0.0452285 0)
(-2.05618 -0.0476078 1.85729e-20)
(-2.02753 -0.0499139 -1.09876e-20)
(-1.99735 -0.0521477 0)
(-1.96567 -0.0543029 8.08099e-21)
(-1.9325 -0.0563751 -9.83876e-21)
(-1.89788 -0.0583543 7.59016e-21)
(-1.86181 -0.0602466 -1.72955e-21)
(-1.82431 -0.0620453 -9.5925e-22)
(-1.78541 -0.0637488 -4.99184e-22)
(-1.74511 -0.0653706 0)
(-1.70344 -0.0669281 -4.13567e-21)
(-1.66035 -0.0684692 0)
(-1.61583 -0.0701002 0)
(-1.56983 -0.0719338 7.78081e-21)
(-1.52235 -0.0736789 -9.7275e-21)
(-1.47305 -0.074314 0)
(-1.42185 -0.0748833 1.26018e-20)
(-1.37043 -0.0763599 0)
(-1.31861 -0.0780397 0)
(-1.26587 -0.0793863 1.69481e-20)
(-1.21187 -0.0801642 0)
(-1.15668 -0.0809497 2.50406e-22)
(-1.10038 -0.0816283 0)
(-1.0428 -0.0821076 2.33222e-20)
(-0.984297 -0.0824808 -2.49674e-20)
(-0.925139 -0.0831253 0)
(-0.865295 -0.083641 0)
(-0.804477 -0.0836839 -3.01554e-20)
(-0.743039 -0.0837422 3.17387e-20)
(-0.681137 -0.0838132 0)
(-0.618534 -0.0838635 0)
(-0.555313 -0.0837538 7.34748e-20)
(-0.491502 -0.0835527 3.8527e-20)
(-0.427357 -0.0832883 0)
(-0.362946 -0.0830624 4.16443e-20)
(-0.298253 -0.0827422 -2.21243e-22)
(-0.233092 -0.0822836 4.49826e-20)
(-0.16763 -0.0817858 4.66014e-20)
(-0.102208 -0.0813084 -2.23265e-22)
(-0.036463 -0.0807339 0)
(0.0295661 -0.080298 0)
(0.0956697 -0.0798764 -5.23599e-20)
(0.161673 -0.079487 0)
(0.22766 -0.0790279 0)
(0.293595 -0.0784927 1.1115e-19)
(0.35933 -0.0778125 -1.12973e-19)
(0.424821 -0.0769902 0)
(0.489959 -0.0761015 0)
(0.554408 -0.0754724 -5.90189e-20)
(0.616597 -0.0749175 0)
(0.67863 -0.0705505 0)
(0.741223 -0.0700833 6.10114e-20)
(0.803441 -0.0694098 0)
(0.866175 -0.067949 0)
(0.928436 -0.0672281 1.94605e-19)
(0.990126 -0.0662991 -6.61482e-20)
(1.05162 -0.0650302 -1.34732e-19)
(1.11294 -0.0633602 3.16249e-22)
(1.17455 -0.0618993 0)
(1.23276 -0.0603816 0)
(1.29339 -0.0540836 0)
(1.34314 -0.0468448 0)
(1.38232 -0.021346 0)
(-0.000282905 -0.0239932 3.60109e-19)
(-0.00373185 -0.025133 0)
(-0.0101813 -0.00993287 0)
(-0.018053 0.00499176 -7.56585e-20)
(-0.02692 0.0189957 0)
(-0.0366768 0.0319097 0)
(-0.0473038 0.04365 2.46452e-20)
(-0.0588221 0.0541866 -4.61382e-20)
(-0.0712728 0.0635481 0)
(-0.0846914 0.0718152 0)
(-0.0991053 0.0791173 0)
(-0.114515 0.0856073 3.9611e-20)
(-0.130903 0.0914493 -1.92784e-20)
(-0.148238 0.0967982 0)
(-0.166468 0.101785 -3.66374e-20)
(-0.185544 0.106513 0)
(-0.20541 0.111054 -3.48549e-20)
(-0.226004 0.115444 -6.80135e-20)
(-0.247271 0.119707 3.3169e-20)
(-0.269166 0.123845 0)
(-0.291644 0.127846 0)
(-0.31466 0.131692 -3.07534e-20)
(-0.338178 0.135366 0)
(-0.362164 0.138844 0)
(-0.386582 0.142108 -2.84784e-20)
(-0.41141 0.145149 0)
(-0.436621 0.147951 5.41013e-20)
(-0.462192 0.150513 0)
(-0.488103 0.15283 0)
(-0.514336 0.154902 7.13127e-24)
(-0.540879 0.156737 0)
(-0.567716 0.158343 -2.38047e-20)
(-0.594834 0.159729 0)
(-0.622228 0.160908 -2.2663e-20)
(-0.649885 0.161893 0)
(-0.677791 0.162695 2.15873e-20)
(-0.70594 0.163326 0)
(-0.73432 0.163799 0)
(-0.76293 0.164127 0)
(-0.791754 0.16432 0)
(-0.820786 0.164388 1.92639e-20)
(-0.850017 0.164339 -1.88423e-20)
(-0.879437 0.164181 0)
(-0.909038 0.163921 1.8061e-20)
(-0.93881 0.163562 1.76922e-20)
(-0.968738 0.163112 3.46832e-20)
(-0.998815 0.162574 1.69962e-20)
(-1.02902 0.161951 1.66674e-20)
(-1.05936 0.161242 0)
(-1.08981 0.160449 0)
(-1.12035 0.159575 -1.57398e-20)
(-1.15096 0.158617 0)
(-1.18165 0.157574 -1.51987e-20)
(-1.21238 0.156448 0)
(-1.24314 0.155234 4.4012e-20)
(-1.27391 0.15393 1.44284e-20)
(-1.30467 0.152537 0)
(-1.3354 0.151049 0)
(-1.36608 0.149467 -2.74321e-20)
(-1.39668 0.147789 0)
(-1.42719 0.146013 2.65596e-20)
(-1.45757 0.144139 0)
(-1.48781 0.14217 0)
(-1.51786 0.140111 -2.53606e-20)