/*--------------------------------*- C++ -*----------------------------------*\
  =========                 |
  \\      /  F ield         | OpenFOAM: The Open Source CFD Toolbox
   \\    /   O peration     | Website:  https://openfoam.org
    \\  /    A nd           | Version:  7
     \\/     M anipulation  |
\*---------------------------------------------------------------------------*/
FoamFile
{
    version     2.0;
    format      ascii;
    class       volScalarField;
    location    "600";
    object      epsilon;
}
// * * * * * * * * * * * * * * * * * * * * * * * * * * * * * * * * * * * * * //

dimensions      [0 2 -3 0 0 0 0];

internalField   nonuniform List<scalar> 
48900
(
215.698
970.798
838.509
844.003
995.296
1222.9
1416.75
1547.36
1626.17
1673.05
1702.95
1724.08
1740.67
1754.73
1767
1777.47
1786.26
1790.52
20.5326
211.358
289.389
410.56
613.888
874.696
1130.87
1344.51
1509.15
1632.91
1726.01
1797.09
1851.44
1892.88
1924.05
1946.6
1961.35
1966.88
14.7044
38.5988
60.1466
79.469
99.7986
124.235
153.202
185.43
219.427
254.143
289.018
323.813
358.401
392.607
426.168
458.693
489.56
517.653
14.6838
18.7197
25.1885
31.4907
37.4195
43.2154
49.12
55.2058
61.4262
67.701
73.9779
80.2338
86.4724
92.7107
98.9638
105.236
111.477
117.515
14.7891
15.3164
17.2208
19.5963
22.0026
24.3276
26.5706
28.7507
30.8748
32.939
34.9358
36.8593
38.707
40.4789
42.1767
43.7999
45.341
46.7695
14.8083
14.75
15.0857
15.8729
16.8396
17.8608
18.88
19.876
20.8404
21.7688
22.6577
23.5048
24.3085
25.0678
25.7824
26.4509
27.0704
27.631
14.8121
14.6516
14.5995
14.7073
14.9886
15.3642
15.7886
16.2333
16.6818
17.1245
17.5552
17.97
18.3664
18.7427
19.0976
19.4297
19.7366
20.0133
14.8115
14.6425
14.4978
14.4078
14.3904
14.438
14.5442
14.685
14.8491
15.026
15.2091
15.3934
15.5755
15.7528
15.9235
16.0859
16.238
16.3761
14.8111
14.6409
14.4824
14.3418
14.2275
14.1453
14.0965
14.0764
14.0809
14.1033
14.1396
14.1858
14.2382
14.2948
14.3534
14.4123
14.4699
14.5237
14.8108
14.6393
14.4787
14.329
14.1914
14.0683
13.9615
13.8715
13.7982
13.7396
13.694
13.6597
13.6343
13.6164
13.6044
13.597
13.5931
13.5921
14.8107
14.6382
14.4765
14.3248
14.1827
14.0498
13.9265
13.8131
13.7099
13.6167
13.533
13.4583
13.3917
13.3324
13.2797
13.2326
13.1902
13.1514
14.8106
14.6375
14.475
14.3224
14.1789
14.0439
13.9168
13.7974
13.6856
13.5811
13.4837
13.3933
13.3094
13.2317
13.1597
13.093
13.031
12.9732
14.8105
14.637
14.474
14.3207
14.1765
14.0407
13.9125
13.7916
13.6774
13.5698
13.4683
13.3727
13.2827
13.1981
13.1184
13.0435
12.973
12.9065
14.8104
14.6366
14.4731
14.3193
14.1745
14.038
13.9092
13.7876
13.6725
13.5637
13.4608
13.3633
13.271
13.1836
13.1009
13.0224
12.9481
12.8775
14.8104
14.6363
14.4725
14.3182
14.1729
14.0359
13.9066
13.7844
13.6688
13.5594
13.4558
13.3576
13.2644
13.1761
13.0921
13.0124
12.9367
12.8646
14.8104
14.6361
14.4719
14.3174
14.1717
14.0342
13.9045
13.7818
13.6658
13.556
13.4519
13.3532
13.2596
13.1707
13.0862
13.006
12.9296
12.857
14.8103
14.6359
14.4716
14.3167
14.1708
14.033
13.9029
13.7799
13.6635
13.5533
13.4489
13.3498
13.2558
13.1666
13.0817
13.0011
12.9244
12.8514
14.8103
14.6358
14.4714
14.3164
14.1702
14.0322
13.9019
13.7786
13.662
13.5515
13.4468
13.3475
13.2532
13.1636
13.0785
12.9976
12.9207
12.8474
14.8103
14.6358
14.4713
14.3163
14.17
14.0319
13.9015
13.7781
13.6613
13.5506
13.4458
13.3462
13.2518
13.1621
13.0768
12.9957
12.9186
12.8452
14.8104
14.6359
14.4715
14.3165
14.1703
14.0323
13.9019
13.7785
13.6617
13.5511
13.4462
13.3467
13.2522
13.1624
13.0771
12.996
12.9189
12.8455
14.8104
14.636
14.4718
14.317
14.171
14.0332
13.9029
13.7798
13.6631
13.5526
13.4478
13.3484
13.254
13.1644
13.0792
12.9982
12.9212
12.8479
14.8104
14.6363
14.4723
14.3178
14.1722
14.0347
13.9048
13.7819
13.6656
13.5555
13.4511
13.3522
13.2584
13.1694
13.0851
13.0051
12.9292
12.8572
14.8105
14.6367
14.4731
14.3192
14.1741
14.0373
13.9083
13.7866
13.6721
13.5645
13.4636
13.369
13.2804
13.1976
13.1203
13.048
12.9805
12.9175
14.8106
14.6373
14.4745
14.3215
14.1786
14.0464
13.9257
13.8169
13.7198
13.6341
13.5589
13.4932
13.4359
13.3862
13.3431
13.3058
13.2735
13.2458
14.8102
14.6381
14.4776
14.336
14.2214
14.1401
14.0886
14.0645
14.0636
14.0777
14.1057
14.1433
14.188
14.2377
14.291
14.3467
14.4041
14.4628
14.8042
14.6393
14.5322
14.5363
14.6446
14.8402
15.0806
15.3463
15.6239
15.9056
16.1873
16.4665
16.7415
17.0113
17.2751
17.5321
17.7823
18.0261
14.7559
14.7815
15.2359
16.0952
17.0831
18.0843
19.0595
20.0035
20.9233
21.8256
22.7149
23.5922
24.4565
25.3057
26.1375
26.9504
27.7433
28.5168
14.6492
16.6908
20.4527
24.0957
27.3638
30.3888
33.3479
36.3731
39.5336
42.8413
46.2742
49.7941
53.3616
56.9426
60.511
64.0493
67.5469
70.9997
25.254
36.7583
52.7227
64.3265
75.4626
88.9355
105.762
126.166
149.533
174.837
201.034
227.266
252.934
277.673
301.304
323.765
345.064
365.248
660.187
256.98
290.805
361.719
482.903
657.243
859.911
1059.54
1233.45
1372.75
1478.56
1556.47
1612.89
1653.42
1682.39
1702.95
1717.37
1727.25
0.909784
0.545542
1.14379
1.65654
2.09313
2.48108
2.86425
3.25281
3.65783
4.0894
4.55344
5.05054
5.58268
6.14963
6.75299
7.39553
8.07861
8.80736
9.58448
10.4161
11.3062
12.2575
13.2771
14.3683
15.533
16.778
18.1058
19.5195
21.0232
22.6208
24.3103
26.0927
27.9688
29.9397
32.0107
34.1744
36.4339
38.7968
41.2514
43.8095
46.4589
49.2132
52.0647
55.0059
58.0523
61.1943
64.4219
67.7651
71.1811
74.7128
78.3113
82.024
85.7961
89.6771
93.6395
97.6405
101.733
105.878
110.04
114.207
118.374
122.487
126.502
130.364
134.02
137.399
140.452
143.127
145.475
148.021
150.517
153.218
155.779
157.931
161.499
163.013
162.389
159.591
156.54
156.362
159.54
165.522
165.219
163.351
162.901
728.402
751.762
776.232
779.214
799.296
811.962
828.418
812.321
844.388
791.708
773.153
818.067
891.93
870.082
839.774
786.449
801.619
816.501
831.844
846.834
861.523
875.775
889.616
902.942
915.795
928.135
939.874
950.959
961.45
971.274
980.432
988.826
996.519
1003.44
1009.6
1014.96
1019.47
1023.1
1025.84
1027.45
1027.99
1026.36
1023.18
1021.93
1049.3
1154.94
1475.62
1484.71
1431.2
1419.09
1443.97
1475.31
1436.87
1474.58
1424.07
1473.71
1442.91
1416.54
1422.72
1406.67
1408.44
1396.02
1376.72
1347.77
1347.64
1319.39
1322.64
1309.75
1299.18
1281.87
1258.75
1258.68
1244.01
1233.51
1215.19
1196.33
1177.63
1159.47
1144.33
1135.85
1128.29
1113.13
246.416
246.603
244.802
244.392
243.822
243.479
243.245
241.419
242.592
1394.54
1503.43
1477.83
264.675
3.01167
0.82744
0.848597
0.96117
1.1078
1.27889
1.47289
1.6892
1.92717
2.18649
2.46694
2.7684
3.09095
3.43493
3.80101
4.19026
4.604
5.04371
5.51095
6.00727
6.53439
7.09395
7.68738
8.31612
8.98135
9.68448
10.4267
11.2091
12.0329
12.899
13.8082
14.7615
15.7593
16.8029
17.8932
19.0309
20.2166
21.4511
22.7352
24.0693
25.4543
26.8902
28.378
29.9174
31.5096
33.1541
34.8513
36.6018
38.4045
40.2599
42.1663
44.124
46.1302
48.1842
50.2821
52.4199
54.5926
56.793
59.0117
61.2388
63.4611
65.6664
67.8386
69.9645
72.0389
74.0628
76.0538
78.0474
80.0987
82.2576
84.5394
86.9829
89.6237
92.5323
95.5695
98.5851
101.646
104.673
107.666
111.996
117.81
125.278
136.378
151.646
167.987
177.54
183.692
185.101
190.708
194.316
196.722
197.383
200.21
206.908
210.163
213.522
217.851
220.122
223.825
227.525
228.545
232.541
236.866
241.161
245.373
249.502
253.548
257.483
261.32
265.032
268.627
272.093
275.412
278.588
281.617
284.48
287.177
289.698
292.03
294.175
296.125
297.864
299.391
300.693
301.739
302.524
303.085
304.269
307.443
315.393
328.081
333.943
331.244
332.079
332.714
331.7
329.173
329.587
325.506
326.514
318.461
316.042
322.962
317.754
313.714
308.632
302.517
300.009
305.694
299.222
295.056
287.882
282.168
282.219
279.993
275.796
270.647
265.457
261.422
256.681
253.319
250.146
247.089
244.368
242.223
240.358
234.599
200.38
198.34
194.459
193.116
190.446
187.688
185.181
181.935
183.12
284.654
396.914
390.591
247.495
5.52794
1.46869
1.29049
1.31988
1.41997
1.56237
1.73796
1.94291
2.17489
2.43203
2.71259
3.01499
3.33801
3.68091
4.04346
4.42583
4.82864
5.25268
5.69897
6.16863
6.66315
7.18372
7.73119
8.30676
8.91159
9.54679
10.2129
10.9103
11.6391
12.4006
13.1964
14.0273
14.8939
15.797
16.7373
17.7158
18.733
19.7893
20.8855
22.0219
23.1992
24.4178
25.6783
26.9811
28.3266
29.7149
31.1464
32.6213
34.14
35.7024
37.3084
38.9576
40.6499
42.384
44.1591
45.9734
47.8245
49.7097
51.626
53.5692
55.5357
57.5218
59.5253
61.547
63.591
65.6673
67.7927
69.9862
72.2665
74.6469
77.1435
79.7865
82.6182
85.6747
88.9508
92.4006
95.9289
99.4268
102.89
106.525
110.595
115.254
120.636
126.213
131.356
135.622
139.368
142.776
146.272
149.409
152.032
154.622
157.923
162.004
166.25
170.105
173.641
176.73
180.153
183.718
187.147
190.701
194.212
197.658
201.041
204.357
207.603
210.77
213.853
216.845
219.741
222.534
225.218
227.789
230.24
232.566
234.759
236.815
238.729
240.495
242.109
243.566
244.862
245.995
246.962
247.766
248.448
249.241
250.765
253.975
258.634
261.135
260.54
259.142
258.874
259.712
259.586
258.671
258.326
257.563
256.898
254.683
252.982
252.024
251.734
250.93
248.302
244.883
242.217
240.704
239.713
238.208
235.425
232.688
230.314
228.44
226.274
223.709
221.622
219.127
216.522
213.906
211.301
208.737
206.239
203.831
201.11
197.595
198.243
196.734
194.233
191.851
189.334
186.763
183.902
181.608
188.538
203.144
199.35
176.752
8.27538
2.16427
1.79375
1.75696
1.82548
1.95143
2.11859
2.31994
2.55168
2.81106
3.09581
3.40384
3.73342
4.08325
4.45247
4.84076
5.24821
5.67524
6.12258
6.59115
7.08192
7.59585
8.13395
8.69716
9.28627
9.9024
10.5466
11.2197
11.9229
12.6569
13.4224
14.2198
15.0501
15.9143
16.8136
17.7484
18.7196
19.7276
20.7728
21.8555
22.9758
24.1347
25.3331
26.5718
27.8512
29.1718
30.5341
31.9386
33.386
34.8766
36.4109
37.9892
39.612
41.2792
42.991
44.7472
46.5474
48.391
50.278
52.2074
54.1795
56.1953
58.2573
60.3706
62.5428
64.7835
67.1039
69.5134
72.0192
74.6216
77.3191
80.1171
83.0302
86.0787
89.2753
92.6054
96.014
99.4265
102.805
106.175
109.618
113.214
116.957
120.746
124.473
128.107
131.688
135.26
138.831
142.339
145.758
149.177
152.713
156.43
160.231
163.991
167.642
171.176
174.708
178.297
181.888
185.41
188.855
192.233
195.548
198.797
201.976
205.078
208.098
211.029
213.866
216.603
219.234
221.754
224.156
226.436
228.588
230.607
232.487
234.225
235.815
237.257
238.545
239.683
240.676
241.537
242.292
243.013
243.891
245.24
246.978
247.936
247.658
246.761
246.319
246.389
246.006
245.22
244.581
243.771
243.086
241.353
239.335
238.187
237.352
236.13
234.12
231.391
228.65
227.038
225.756
224.191
221.921
219.255
216.875
214.902
212.782
210.494
208.371
206.05
203.568
201.032
198.486
195.944
193.413
190.936
188.676
187.343
186.838
185.272
183.054
180.711
178.307
175.894
173.418
170.837
167.593
164.439
161.509
158.139
11.0446
2.88295
2.312
2.209
2.24676
2.35673
2.5151
2.7116
2.94083
3.19933
3.48446
3.79399
4.126
4.47899
4.85186
5.24402
5.6552
6.08561
6.53571
7.00622
7.49794
8.01178
8.54869
9.10972
9.69573
10.3078
10.947
11.6142
12.3104
13.0364
13.7931
14.5814
15.4021
16.2562
17.1444
18.0675
19.0262
20.0211
21.0532
22.1231
23.2318
24.38
25.5682
26.7973
28.0679
29.381
30.7375
32.1381
33.584
35.0758
36.6146
38.2012
39.8369
41.5221
43.258
45.0455
46.8852
48.7779
50.725
52.7268
54.7853
56.9028
59.0828
61.3306
63.6526
66.0567
68.5521
71.1446
73.8354
76.6209
79.4932
82.4462
85.4785
88.5953
91.8023
95.0979
98.4663
101.881
105.322
108.785
112.284
115.838
119.453
123.113
126.804
130.518
134.254
138.017
141.804
145.605
149.415
153.234
157.074
160.937
164.81
168.681
172.535
176.365
180.139
183.906
187.65
191.342
194.971
198.537
202.036
205.466
208.82
212.094
215.279
218.371
221.363
224.249
227.023
229.679
232.21
234.612
236.879
239.007
240.987
242.818
244.495
246.016
247.376
248.581
249.634
250.551
251.356
252.078
252.763
253.462
254.116
254.386
254.123
253.514
252.944
252.469
251.776
250.866
249.887
248.787
247.641
246.057
244.233
242.622
241.046
239.27
237.193
234.783
232.316
230.253
228.303
226.192
223.792
221.187
218.662
216.276
213.813
211.286
208.806
206.245
203.59
200.891
198.18
195.467
192.765
190.1
187.595
185.589
183.877
181.849
179.515
177.036
174.517
172.012
169.535
166.978
163.675
160.16
157.915
156.775
13.6935
3.58891
2.81742
2.6473
2.65404
2.74706
2.89525
3.08495
3.3092
3.56378
3.8458
4.1529
4.48322
4.83525
5.20782
5.60022
6.0121
6.44346
6.89461
7.36609
7.85864
8.37308
8.91034
9.47144
10.0573
10.669
11.3076
11.974
12.6693
13.3944
14.1503
14.9381
15.7584
16.6126
17.5014
18.4257
19.3864
20.3845
21.4209
22.4965
23.6123
24.7693
25.9684
27.2107
28.4973
29.8292
31.2077
32.634
34.1096
35.6356
37.2136
38.8448
40.5311
42.2736
44.0741
45.9342
47.8552
49.8388
51.8872
54.0014
56.1839
58.4372
60.7646
63.1703
65.6592
68.2367
70.9086
73.6783
76.5467
79.5106
82.5637
85.6995
88.9132
92.2029
95.57
99.0144
102.533
106.119
109.765
113.466
117.221
121.031
124.897
128.814
132.78
136.787
140.832
144.91
149.017
153.151
157.311
161.488
165.679
169.878
174.08
178.278
182.467
186.645
190.755
194.844
198.902
202.914
206.869
210.76
214.581
218.324
221.985
225.555
229.03
232.401
235.661
238.805
241.825
244.715
247.469
250.081
252.544
254.854
257.004
258.99
260.807
262.453
263.925
265.223
266.354
267.327
268.16
268.874
269.479
269.965
270.273
270.293
269.981
269.419
268.742
267.983
267.063
265.974
264.749
263.384
261.898
260.198
258.321
256.384
254.35
252.177
249.859
247.389
244.864
242.411
239.938
237.353
234.642
231.841
229.03
226.227
223.371
220.48
217.59
214.664
211.687
208.677
205.654
202.63
199.617
196.627
193.714
190.991
188.423
185.837
183.147
180.367
177.563
174.781
172.052
169.336
166.467
163.696
161.526
159.989
16.1202
4.25643
3.29061
3.05376
3.02948
3.1048
3.2417
3.42322
3.6408
3.88951
4.16607
4.46816
4.79394
5.14195
5.51114
5.90079
6.3105
6.74018
7.19009
7.66066
8.15254
8.66648
9.20337
9.76423
10.35
10.9617
11.6005
12.2674
12.9634
13.6896
14.4473
15.2373
16.0607
16.9188
17.8126
18.7431
19.7115
20.7188
21.7665
22.8553
23.9868
25.1619
26.3821
27.6487
28.9632
30.3269
31.7415
33.2085
34.7299
36.3073
37.9425
39.6376
41.3947
43.2155
45.1025
47.0577
49.0832
51.1811
53.3541
55.6039
57.9331
60.3443
62.8406
65.425
68.1013
70.8729
73.7438
76.7161
79.7905
82.9652
86.2367
89.601
93.0539
96.593
100.217
103.926
107.719
111.593
115.545
119.571
123.669
127.834
132.064
136.357
140.708
145.113
149.566
154.061
158.592
163.157
167.751
172.368
177.002
181.647
186.296
190.942
195.577
200.198
204.747
209.269
213.755
218.193
222.572
226.881
231.112
235.256
239.308
243.258
247.099
250.824
254.424
257.892
261.223
264.407
267.439
270.311
273.017
275.552
277.907
280.081
282.066
283.861
285.459
286.864
288.075
289.103
289.958
290.654
291.196
291.57
291.73
291.627
291.244
290.622
289.82
288.868
287.749
286.459
285.006
283.394
281.629
279.693
277.597
275.366
272.998
270.496
267.876
265.148
262.35
259.514
256.608
253.603
250.512
247.358
244.165
240.938
237.662
234.354
231.027
227.675
224.289
220.875
217.449
214.021
210.602
207.198
203.833
200.544
197.344
194.197
191.036
187.841
184.643
181.477
178.373
175.334
172.36
169.567
167.112
165.03
18.2571
4.86664
3.71849
3.4175
3.36236
3.41965
3.5446
3.71711
3.92707
4.16876
4.4386
4.73418
5.05369
5.39581
5.75955
6.14427
6.5496
6.97547
7.42204
7.88975
8.37916
8.89099
9.42611
9.98552
10.5701
11.181
11.8194
12.4863
13.1829
13.9103
14.6699
15.4627
16.29
17.1531
18.0533
18.9919
19.9701
20.9893
22.0511
23.1568
24.3079
25.5059
26.7525
28.0495
29.3986
30.8015
32.2603
33.7771
35.3541
36.9935
38.6975
40.4688
42.31
44.2233
46.2116
48.2777
50.4239
52.6531
54.9683
57.3718
59.8664
62.4548
65.14
67.9249
70.8123
73.8045
76.905
80.115
83.4353
86.8655
90.4035
94.0478
97.7954
101.644
105.593
109.642
113.788
118.03
122.366
126.792
131.303
135.897
140.569
145.315
150.132
155.014
159.955
164.95
169.991
175.071
180.186
185.329
190.491
195.668
200.849
206.027
211.192
216.34
221.411
226.447
231.441
236.381
241.254
246.048
250.754
255.362
259.862
264.247
268.507
272.634
276.621
280.457
284.136
287.649
290.989
294.149
297.121
299.9
302.479
304.851
307.013
308.96
310.686
312.193
313.48
314.555
315.423
316.093
316.572
316.847
316.89
316.675
316.188
315.451
314.5
313.357
312.026
310.506
308.804
306.924
304.872
302.645
300.249
297.696
294.992
292.146
289.176
286.094
282.922
279.673
276.334
272.898
269.378
265.792
262.152
258.465
254.727
250.954
247.15
243.321
239.463
235.581
231.687
227.79
223.897
220.017
216.16
212.342
208.578
204.869
201.182
197.501
193.84
190.224
186.679
183.226
179.894
176.752
173.88
171.28
20.0632
5.40714
4.09299
3.73187
3.64683
3.68624
3.799
3.96211
4.16397
4.39813
4.66064
4.94897
5.26132
5.59648
5.95353
6.33193
6.73136
7.15179
7.5934
8.05658
8.54191
9.05008
9.58193
10.1385
10.7206
11.3295
11.9664
12.6324
13.3287
14.0567
14.8177
15.613
16.444
17.3123
18.2193
19.1665
20.1555
21.1879
22.2657
23.3902
24.5636
25.7876
27.0643
28.3959
29.7844
31.2322
32.7416
34.3152
35.9559
37.6661
39.4488
41.307
43.2439
45.2623
47.3656
49.5571
51.8399
54.2171
56.6925
59.2685
61.9486
64.7357
67.6329
70.6433
73.7694
77.0134
80.3782
83.8651
87.4751
91.2086
95.0643
99.0422
103.14
107.357
111.691
116.142
120.707
125.386
130.174
135.068
140.064
145.158
150.344
155.617
160.973
166.407
171.911
177.479
183.102
188.771
194.48
200.221
205.985
211.763
217.546
223.324
229.087
234.828
240.484
246.096
251.658
257.154
262.573
267.9
273.125
278.237
283.226
288.081
292.792
297.35
301.746
305.971
310.016
313.871
317.53
320.983
324.226
327.25
330.045
332.612
334.94
337.028
338.867
340.458
341.803
342.902
343.764
344.392
344.794
344.96
344.877
344.525
343.896
343.003
341.867
340.509
338.935
337.152
335.168
332.986
330.612
328.051
325.308
322.393
319.314
316.083
312.714
309.221
305.62
301.919
298.118
294.215
290.223
286.154
282.023
277.836
273.594
269.309
264.988
260.639
256.262
251.861
247.45
243.033
238.62
234.216
229.829
225.468
221.143
216.865
212.623
208.412
204.242
200.13
196.101
192.181
188.402
184.813
181.465
178.337
21.5187
5.87064
4.41014
3.99431
3.88107
3.9031
4.00367
4.15722
4.3508
4.57721
4.83217
5.11298
5.41784
5.74554
6.09528
6.46657
6.85919
7.27314
7.70866
8.16613
8.64616
9.14944
9.67682
10.2293
10.8079
11.4139
12.0483
12.7126
13.408
14.1359
14.8979
15.6955
16.5302
17.4039
18.3182
19.275
20.276
21.3232
22.4189
23.5649
24.7635
26.0171
27.3281
28.6992
30.1329
31.6319
33.1993
34.8381
36.5517
38.3432
40.216
42.1738
44.2204
46.3591
48.5941
50.9291
53.3679
55.9142
58.5723
61.3452
64.2369
67.2506
70.3899
73.658
77.0577
80.5914
84.2619
88.0707
92.0192
96.1083
100.337
104.706
109.214
113.86
118.643
123.56
128.612
133.793
139.103
144.535
150.086
155.75
161.522
167.395
173.361
179.417
185.553
191.762
198.033
204.357
210.725
217.127
223.553
229.992
236.434
242.866
249.28
255.665
261.954
268.186
274.355
280.445
286.442
292.333
298.103
303.74
309.235
314.574
319.747
324.744
329.552
334.164
338.57
342.76
346.726
350.461
353.955
357.202
360.195
362.927
365.392
367.589
369.509
371.152
372.516
373.607
374.426
374.981
375.276
375.305
375.063
374.537
373.723
372.626
371.263
369.648
367.795
365.709
363.402
360.878
358.146
355.209
352.077
348.759
345.263
341.603
337.792
333.842
329.77
325.582
321.287
316.881
312.378
307.792
303.132
298.41
293.627
288.798
283.925
279.022
274.089
269.135
264.168
259.196
254.226
249.265
244.318
239.392
234.496
229.642
224.831
220.065
215.357
210.719
206.176
201.754
197.484
193.402
189.542
185.87
22.6222
6.25358
4.66895
4.20486
4.0654
4.07119
4.1599
4.30396
4.48925
4.70793
4.95535
5.22866
5.526
5.84617
6.18844
6.55237
6.93781
7.34483
7.77372
8.22492
8.69904
9.19682
9.71912
10.267
10.8416
11.4442
12.0762
12.7386
13.4331
14.1612
14.9247
15.7252
16.5646
17.4452
18.3686
19.3372
20.353
21.4184
22.5359
23.7078
24.9371
26.2263
27.5786
28.9969
30.4847
32.045
33.6816
35.398
37.1984
39.0864
41.0662
43.142
45.3184
47.5994
49.9899
52.4942
55.1168
57.862
60.7349
63.7389
66.8787
70.158
73.5808
77.1507
80.8709
84.7438
88.7728
92.9595
97.3053
101.811
106.478
111.305
116.291
121.436
126.738
132.194
137.803
143.561
149.465
155.509
161.687
167.994
174.422
180.964
187.612
194.358
201.192
208.104
215.084
222.121
229.202
236.318
243.455
250.602
257.745
264.873
271.973
279.035
285.986
292.863
299.659
306.358
312.947
319.406
325.725
331.887
337.882
343.696
349.316
354.734
359.934
364.908
369.647
374.142
378.38
382.356
386.06
389.489
392.629
395.48
398.034
400.288
402.235
403.876
405.208
406.237
406.962
407.392
407.53
407.377
406.927
406.177
405.121
403.766
402.121
400.204
398.024
395.59
392.915
390.006
386.871
383.517
379.954
376.191
372.239
368.11
363.818
359.373
354.796
350.089
345.266
340.326
335.283
330.148
324.933
319.647
314.298
308.897
303.449
297.967
292.456
286.921
281.374
275.822
270.273
264.732
259.206
253.703
248.226
242.792
237.406
232.075
226.813
221.634
216.56
211.616
206.83
202.23
197.839
193.618
23.3845
6.55593
4.8706
4.36538
4.20266
4.1934
4.27082
4.40565
4.58282
4.79393
5.03404
5.3001
5.59021
5.90317
6.23825
6.5951
6.9736
7.37389
7.79638
8.24143
8.70983
9.20248
9.72015
10.264
10.8353
11.4353
12.0655
12.7274
13.4226
14.153
14.9204
15.7267
16.5737
17.4647
18.4019
19.3874
20.424
21.5143
22.6614
23.8681
25.1378
26.4738
27.8797
29.3592
30.9162
32.5548
34.2792
36.0937
38.0033
40.0124
42.1259
44.3489
46.6866
49.1439
51.7264
54.4393
57.2876
60.2766
63.4118
66.6975
70.1387
73.7398
77.5051
81.4389
85.5443
89.824
94.2817
98.9193
103.738
108.739
113.922
119.288
124.834
130.56
136.464
142.541
148.791
155.207
161.784
168.518
175.401
182.425
189.582
196.863
204.257
211.755
219.346
227.018
234.759
242.554
250.392
258.259
266.141
274.024
281.893
289.735
297.534
305.283
312.9
320.421
327.839
335.138
342.301
349.31
356.15
362.808
369.268
375.518
381.545
387.334
392.875
398.16
403.173
407.91
412.359
416.51
420.358
423.897
427.115
430.012
432.58
434.818
436.717
438.282
439.509
440.4
440.962
441.198
441.115
440.711
439.989
438.948
437.586
435.908
433.923
431.643
429.08
426.246
423.153
419.811
416.227
412.413
408.376
404.129
399.682
395.045
390.237
385.266
380.151
374.898
369.521
364.022
358.414
352.709
346.917
341.05
335.115
329.127
323.087
317.012
310.907
304.778
298.638
292.494
286.354
280.224
274.112
268.024
261.967
255.954
249.995
244.099
238.282
232.558
226.948
221.476
216.166
211.041
206.115
201.353
23.8219
6.77976
5.01776
4.47914
4.29658
4.27383
4.34079
4.46693
4.6364
4.84037
5.07366
5.33306
5.61661
5.92315
6.25188
6.60261
6.97527
7.36998
7.78707
8.22709
8.69094
9.17955
9.69406
10.2358
10.8059
11.4061
12.0379
12.703
13.4034
14.141
14.9179
15.7361
16.5986
17.5085
18.4686
19.4816
20.5507
21.679
22.8703
24.128
25.4561
26.8588
28.3402
29.9051
31.558
33.3038
35.1477
37.0949
39.1513
41.322
43.613
46.0303
48.58
51.2678
54.1
57.083
60.2222
63.5235
66.9935
70.6366
74.4588
78.4643
82.6581
87.0444
91.6269
96.4076
101.391
106.577
111.968
117.564
123.365
129.371
135.578
141.985
148.588
155.383
162.366
169.531
176.869
184.376
192.043
199.859
207.814
215.896
224.095
232.398
240.792
249.264
257.799
266.382
274.996
283.629
292.263
300.883
309.472
318.015
326.496
334.908
343.162
351.293
359.292
367.143
374.827
382.328
389.628
396.714
403.567
410.177
416.528
422.608
428.406
433.909
439.107
443.992
448.554
452.785
456.678
460.227
463.422
466.265
468.747
470.87
472.624
474.012
475.038
475.702
476.009
475.964
475.571
474.837
473.763
472.355
470.609
468.534
466.137
463.428
460.422
457.13
453.564
449.736
445.657
441.336
436.784
432.012
427.033
421.858
416.502
410.977
405.299
399.478
393.528
387.45
381.261
374.97
368.589
362.131
355.602
349.017
342.38
335.708
329.006
322.279
315.545
308.807
302.076
295.358
288.662
281.995
275.365
268.784
262.262
255.81
249.448
243.187
237.05
231.057
225.23
219.587
214.14
208.853
23.9618
6.9285
5.11395
4.55012
4.3516
4.31734
4.37511
4.49347
4.65611
4.85378
5.08126
5.33526
5.61368
5.91521
6.23913
6.5853
6.95384
7.34504
7.7594
8.19761
8.66062
9.14949
9.66546
10.2101
10.7848
11.3912
12.0314
12.7068
13.4202
14.1742
14.9714
15.8149
16.7074
17.6524
18.6531
19.7132
20.8364
22.0267
23.2888
24.6268
26.0457
27.5504
29.1464
30.839
32.6341
34.5374
36.5554
38.6942
40.9608
43.3614
45.9031
48.5927
51.4375
54.4436
57.6188
60.9696
64.5025
68.2237
72.1402
76.257
80.5792
85.1126
89.8608
94.8287
100.018
105.432
111.073
116.941
123.037
129.36
135.907
142.679
149.671
156.877
164.293
171.914
179.734
187.742
195.932
204.294
212.816
221.489
230.297
239.23
248.272
257.409
266.628
275.911
285.241
294.602
303.979
313.351
322.704
332.018
341.276
350.461
359.559
368.56
377.374
386.03
394.518
402.824
410.929
418.813
426.462
433.858
440.987
447.834
454.385
460.627
466.549
472.141
477.391
482.292
486.832
491.009
494.811
498.239
501.281
503.939
506.208
508.087
509.571
510.667
511.373
511.694
511.637
511.201
510.399
509.238
507.722
505.854
503.641
501.085
498.198
494.989
491.473
487.66
483.566
479.2
474.576
469.706
464.598
459.267
453.722
447.978
442.051
435.948
429.691
423.286
416.747
410.082
403.303
396.422
389.449
382.398
375.275
368.098
360.868
353.603
346.312
338.997
331.677
324.356
317.047
309.754
302.489
295.259
288.071
280.941
273.875
266.889
260.001
253.224
246.578
240.082
233.757
227.619
221.674
215.892
23.8421
7.00626
5.16314
4.58266
4.37253
4.32925
4.37987
4.49227
4.64961
4.84255
5.06582
5.3162
5.59168
5.89108
6.21379
6.55965
6.92877
7.32161
7.7389
8.18135
8.65013
9.14635
9.67151
10.2277
10.8167
11.4408
12.1025
12.8043
13.5491
14.3396
15.1793
16.0717
17.0203
18.0295
19.1034
20.2467
21.464
22.7606
24.1422
25.614
27.1824
28.8534
30.6336
32.5301
34.5497
36.6997
38.9877
41.4211
44.0081
46.7562
49.6733
52.7672
56.0464
59.5172
63.188
67.0658
71.1573
75.4683
80.0064
84.775
89.7794
95.0242
100.512
106.246
112.229
118.458
124.937
131.663
138.635
145.85
153.302
160.991
168.907
177.044
185.395
193.953
202.707
211.646
220.759
230.037
239.463
249.026
258.709
268.499
278.378
288.332
298.342
308.391
318.462
328.535
338.593
348.616
358.586
368.485
378.293
387.993
397.571
407.02
416.245
425.271
434.09
442.686
451.042
459.14
466.961
474.491
481.714
488.617
495.186
501.408
507.274
512.771
517.892
522.628
526.972
530.917
534.462
537.596
540.319
542.63
544.527
546.011
547.079
547.735
547.985
547.831
547.276
546.332
545.008
543.31
541.249
538.827
536.052
532.929
529.472
525.689
521.593
517.198
512.518
507.565
502.353
496.892
491.193
485.271
479.137
472.802
466.285
459.593
452.745
445.749
438.623
431.369
424.002
416.535
408.978
401.345
393.64
385.884
378.078
370.24
362.377
354.495
346.611
338.73
330.866
323.024
315.215
307.448
299.732
292.079
284.501
277.01
269.627
262.363
255.238
248.27
241.478
234.876
228.469
222.231
23.444
7.02108
5.17035
4.58195
4.36504
4.31595
4.3617
4.47032
4.62514
4.8169
5.04019
5.29177
5.56972
5.87303
6.20106
6.55372
6.93109
7.3341
7.7639
8.2217
8.70905
9.2278
9.78011
10.3681
10.9942
11.6613
12.3725
13.131
13.9408
14.8056
15.73
16.7185
17.776
18.9082
20.1205
21.4191
22.8105
24.3013
25.8989
27.6104
29.4437
31.4068
33.508
35.7561
38.1595
40.7271
43.4679
46.3907
49.5048
52.8184
56.3403
60.0785
64.0414
68.2356
72.6686
77.3469
82.2754
87.459
92.9031
98.6093
104.581
110.819
117.324
124.096
131.133
138.432
145.991
153.804
161.867
170.174
178.715
187.485
196.474
205.67
215.065
224.646
234.402
244.319
254.384
264.582
274.899
285.318
295.824
306.4
317.028
327.691
338.37
349.048
359.707
370.325
380.885
391.368
401.754
412.025
422.162
432.147
441.968
451.619
461.008
470.154
479.049
487.679
496.027
504.075
511.808
519.211
526.269
532.97
539.3
545.25
550.807
555.965
560.715
565.049
568.963
572.453
575.513
578.143
580.338
582.102
583.433
584.334
584.805
584.851
584.476
583.686
582.49
580.898
578.919
576.564
573.84
570.755
567.316
563.534
559.419
554.983
550.237
545.196
539.874
534.283
528.437
522.348
516.027
509.487
502.74
495.8
488.681
481.391
473.95
466.364
458.653
450.817
442.873
434.834
426.708
418.511
410.245
401.934
393.576
385.191
376.785
368.365
359.948
351.54
343.155
334.797
326.479
318.212
310.003
301.867
293.814
285.857
278.017
270.305
262.739
255.338
248.12
241.095
234.269
227.622
22.8615
6.97038
5.13738
4.55057
4.33334
4.28449
4.3316
4.4429
4.60207
4.80013
5.03162
5.29302
5.58307
5.9013
6.24751
6.62226
7.02639
7.46098
7.9275
8.42779
8.96418
9.53925
10.1559
10.8177
11.528
12.2912
13.1119
13.9948
14.9455
15.9697
17.0739
18.265
19.5499
20.9369
22.4341
24.05
25.7937
27.6745
29.7025
31.8873
34.2393
36.7689
39.4865
42.4026
45.5274
48.8707
52.4421
56.2507
60.3056
64.6142
69.1835
74.0198
79.1291
84.5145
90.1801
96.1283
102.36
108.874
115.672
122.75
130.105
137.733
145.63
153.789
162.204
170.866
179.769
188.901
198.254
207.818
217.579
227.528
237.652
247.938
258.372
268.942
279.633
290.431
301.319
312.284
323.31
334.381
345.48
356.591
367.696
378.778
389.82
400.804
411.713
422.529
433.232
443.806
454.231
464.492
474.57
484.448
494.115
503.572
512.73
521.6
530.18
538.454
546.407
554.026
561.294
568.199
574.728
580.87
586.613
591.949
596.868
601.363
605.429
609.06
612.252
615.003
617.311
619.175
620.594
621.573
622.112
622.214
621.885
621.124
619.943
618.351
616.356
613.969
611.2
608.059
604.557
600.702
596.505
591.975
587.125
581.965
576.51
570.77
564.762
558.497
551.987
545.247
538.287
531.119
523.756
516.208
508.492
500.614
492.594
484.437
476.161
467.769
459.276
450.695
442.034
433.307
424.519
415.691
406.822
397.933
389.029
380.117
371.214
362.326
353.467
344.642
335.866
327.148
318.496
309.928
301.451
293.08
284.833
276.723
268.769
260.985
253.392
245.997
238.807
231.807
22.203
6.87107
5.07593
4.50312
4.29512
4.25506
4.31237
4.43581
4.60882
4.82376
5.07616
5.36362
5.68478
6.03931
6.42781
6.85142
7.31187
7.81137
8.35265
8.93894
9.57402
10.2622
11.0082
11.8176
12.6964
13.6512
14.6895
15.8193
17.0494
18.3892
19.849
21.4395
23.1716
25.0579
27.1102
29.3413
31.764
34.3911
37.2362
40.3112
43.6287
47.2002
51.0369
55.1488
59.5446
64.2317
69.2169
74.5044
80.0986
86.0004
92.2103
98.7267
105.548
112.669
120.084
127.788
135.772
144.027
152.547
161.319
170.332
179.578
189.043
198.717
208.586
218.639
228.865
239.251
249.783
260.449
271.235
282.132
293.122
304.194
315.336
326.533
337.773
349.04
360.323
371.608
382.88
394.125
405.329
416.478
427.557
438.551
449.444
460.222
470.869
481.37
491.709
501.87
511.838
521.597
531.132
540.428
549.476
558.28
566.762
574.924
582.767
590.277
597.443
604.25
610.687
616.741
622.403
627.662
632.509
636.937
640.937
644.506
647.639
650.331