/*--------------------------------*- C++ -*----------------------------------*\
  =========                 |
  \\      /  F ield         | OpenFOAM: The Open Source CFD Toolbox
   \\    /   O peration     | Website:  https://openfoam.org
    \\  /    A nd           | Version:  7
     \\/     M anipulation  |
\*---------------------------------------------------------------------------*/
FoamFile
{
    version     2.0;
    format      ascii;
    class       volScalarField;
    location    "600";
    object      k;
}
// * * * * * * * * * * * * * * * * * * * * * * * * * * * * * * * * * * * * * //

dimensions      [0 2 -2 0 0 0 0];

internalField   nonuniform List<scalar> 
48900
(
0.585485
0.308412
0.266381
0.268125
0.316185
0.388493
0.450075
0.491571
0.516606
0.5315
0.540993
0.547712
0.552983
0.55745
0.561345
0.564684
0.567645
0.570167
0.394162
0.53525
0.532861
0.556119
0.633941
0.735283
0.831274
0.911083
0.974974
1.0267
1.06976
1.10651
1.13835
1.16619
1.19057
1.2118
1.23006
1.24493
0.376426
0.406912
0.414972
0.415556
0.415197
0.417068
0.422416
0.430593
0.44127
0.45426
0.469501
0.486866
0.506127
0.526946
0.548894
0.571447
0.593969
0.615597
0.374642
0.382085
0.386176
0.38689
0.385804
0.383546
0.380972
0.378402
0.375996
0.373807
0.371984
0.37062
0.369809
0.369654
0.37006
0.371133
0.372825
0.375033
0.374397
0.37493
0.376326
0.376568
0.375857
0.374266
0.372167
0.369774
0.367219
0.364589
0.361944
0.359334
0.356802
0.354379
0.352097
0.349973
0.348015
0.346221
0.374429
0.372897
0.372346
0.371857
0.371023
0.36977
0.36818
0.366349
0.364358
0.362266
0.360117
0.357944
0.355775
0.353634
0.351537
0.3495
0.347534
0.345648
0.374436
0.372362
0.370805
0.369603
0.368451
0.367195
0.365799
0.364277
0.362658
0.360969
0.359237
0.357482
0.355723
0.353974
0.352249
0.350557
0.348906
0.347302
0.37443
0.37224
0.37029
0.36862
0.36713
0.365713
0.364305
0.36288
0.361432
0.359964
0.358484
0.357001
0.355523
0.354059
0.352615
0.351199
0.349813
0.348461
0.374425
0.372197
0.370126
0.368237
0.366517
0.364923
0.363415
0.361964
0.360552
0.359168
0.357807
0.356469
0.355154
0.353864
0.352602
0.351368
0.350165
0.348992
0.374421
0.37217
0.370058
0.368087
0.366251
0.364537
0.362931
0.361412
0.359968
0.358585
0.357254
0.35597
0.354728
0.353526
0.352362
0.351233
0.35014
0.349078
0.374419
0.372151
0.370017
0.368012
0.366126
0.364352
0.362681
0.361104
0.359613
0.358199
0.356854
0.355571
0.354345
0.35317
0.352043
0.35096
0.349918
0.348914
0.374417
0.372138
0.36999
0.367966
0.366058
0.364255
0.362551
0.36094
0.359415
0.357971
0.356601
0.355299
0.354061
0.352882
0.351758
0.350683
0.349655
0.348668
0.374416
0.37213
0.369972
0.367936
0.366014
0.364196
0.362476
0.360846
0.359301
0.357837
0.356447
0.355128
0.353874
0.352682
0.351547
0.350465
0.349433
0.348445
0.374415
0.372123
0.369957
0.367911
0.365978
0.364149
0.362416
0.360773
0.359214
0.357735
0.356329
0.354994
0.353725
0.352518
0.351369
0.350274
0.349231
0.348234
0.374414
0.372117
0.369945
0.367891
0.365949
0.36411
0.362368
0.360715
0.359146
0.357655
0.356239
0.354892
0.35361
0.35239
0.351229
0.350122
0.349066
0.348058
0.374413
0.372113
0.369936
0.367876
0.365927
0.36408
0.36233
0.360669
0.359092
0.357593
0.356168
0.354812
0.353521
0.352292
0.35112
0.350004
0.348938
0.347922
0.374413
0.37211
0.36993
0.367865
0.365911
0.364058
0.362302
0.360635
0.359051
0.357546
0.356114
0.354751
0.353453
0.352217
0.351038
0.349914
0.348842
0.347819
0.374413
0.372109
0.369926
0.367859
0.365901
0.364044
0.362284
0.360612
0.359023
0.357513
0.356076
0.354708
0.353405
0.352164
0.35098
0.349851
0.348774
0.347746
0.374413
0.372108
0.369925
0.367857
0.365897
0.364039
0.362276
0.360602
0.359011
0.357498
0.356058
0.354686
0.35338
0.352135
0.350949
0.349816
0.348736
0.347705
0.374413
0.37211
0.369928
0.367861
0.365903
0.364046
0.362284
0.36061
0.359019
0.357506
0.356065
0.354694
0.353387
0.352142
0.350954
0.349821
0.348741
0.347709
0.374414
0.372112
0.369933
0.36787
0.365915
0.364061
0.362302
0.360632
0.359043
0.357532
0.356094
0.354725
0.35342
0.352177
0.350991
0.349861
0.348782
0.347753
0.374415
0.372117
0.369942
0.367884
0.365936
0.364089
0.362336
0.360671
0.359089
0.357584
0.356152
0.354789
0.35349
0.352254
0.351075
0.349951
0.348879
0.347856
0.374416
0.372124
0.369957
0.367909
0.365971
0.364135
0.362396
0.360746
0.359181
0.357695
0.356283
0.354939
0.35366
0.352441
0.351277
0.350166
0.349104
0.348089
0.374419
0.372135
0.369981
0.367951
0.366042
0.364248
0.362561
0.360969
0.359463
0.35803
0.356664
0.355357
0.354102
0.352897
0.351737
0.350619
0.349541
0.348502
0.374421
0.372153
0.370036
0.3681
0.366341
0.364724
0.363206
0.361754
0.360346
0.358972
0.357626
0.356305
0.355011
0.353745
0.352506
0.351298
0.350121
0.348976
0.374403
0.372214
0.370412
0.368993
0.367744
0.366506
0.365208
0.363838
0.362408
0.360938
0.359448
0.357954
0.356469
0.355003
0.353561
0.352148
0.350769
0.349426
0.374341
0.372988
0.372901
0.37281
0.37225
0.371192
0.369771
0.368125
0.366369
0.364572
0.362778
0.361013
0.359288
0.357613
0.35599
0.354425
0.35292
0.351476
0.375445
0.379136
0.383349
0.384298
0.38359
0.381797
0.379745
0.377834
0.376199
0.374881
0.373851
0.373068
0.372503
0.372135
0.371954
0.371973
0.372172
0.372579
0.404619
0.415014
0.420713
0.417851
0.414715
0.415478
0.420687
0.430246
0.442779
0.457151
0.472508
0.488278
0.50412
0.519851
0.535378
0.550661
0.565684
0.580434
0.36433
0.560233
0.522891
0.547593
0.630448
0.743094
0.856839
0.953963
1.02865
1.08276
1.121
1.14801
1.16746
1.1819
1.19301
1.20184
1.20909
1.21517
0.000789584
0.00215909
0.00452353
0.00654662
0.00826534
0.00978874
0.01129
0.0128098
0.0143912
0.0160742
0.0178786
0.0198159
0.0218803
0.0240809
0.0264202
0.0289036
0.0315458
0.0343557
0.0373551
0.0405547
0.0439761
0.047637
0.0515482
0.0557299
0.0601996
0.0649618
0.0700353
0.0754315
0.0811646
0.0872492
0.0936763
0.100448
0.107567
0.115035
0.122849
0.131024
0.139549
0.148426
0.15766
0.167241
0.177178
0.187461
0.198089
0.209071
0.220391
0.232046
0.244042
0.25636
0.269016
0.281981
0.295269
0.308847
0.322724
0.336855
0.351241
0.365851
0.380613
0.395496
0.410436
0.425308
0.440015
0.454432
0.46842
0.481829
0.494534
0.506412
0.517467
0.527768
0.537835
0.548435
0.559089
0.570235
0.58083
0.588551
0.597718
0.598471
0.595863
0.591804
0.597829
0.610339
0.606291
0.623511
0.609637
0.579938
0.576746
0.554228
0.551938
0.570355
0.552628
0.573762
0.568465
0.583476
0.600533
0.627649
0.642087
0.634708
0.639006
0.62371
0.63738
0.657964
0.645256
0.652455
0.66012
0.668009
0.675547
0.682867
0.689904
0.696677
0.703136
0.709307
0.71513
0.7207
0.725814
0.730597
0.735017
0.739174
0.742833
0.746123
0.749015
0.751509
0.753593
0.755253
0.756369
0.757134
0.757363
0.757115
0.756218
0.755038
0.75383
0.747535
0.719724
0.665363
0.653769
0.673995
0.672544
0.64542
0.61531
0.633282
0.600146
0.612507
0.565612
0.565519
0.597949
0.565908
0.55195
0.507768
0.498494
0.505704
0.542737
0.512109
0.4916
0.44867
0.442312
0.452392
0.447742
0.433448
0.408257
0.396046
0.381104
0.372198
0.364638
0.357298
0.350043
0.343306
0.337532
0.332026
0.336001
0.631266
0.590133
0.580293
0.574392
0.569621
0.564903
0.559885
0.556411
0.564794
0.551476
0.654533
0.670462
0.847661
0.00261399
0.0168138
0.0252806
0.0316122
0.0370288
0.0419602
0.0466427
0.0512367
0.0558448
0.0605274
0.0653195
0.0702383
0.0752874
0.0804761
0.0858119
0.0913026
0.0969612
0.102803
0.108844
0.1151
0.121586
0.128317
0.135306
0.142564
0.150102
0.15793
0.166059
0.174495
0.183242
0.192306
0.201692
0.211401
0.221437
0.231808
0.24251
0.253545
0.264915
0.276624
0.288669
0.301055
0.313774
0.326836
0.340231
0.353969
0.36804
0.382449
0.397191
0.412263
0.427666
0.443397
0.45945
0.475817
0.492498
0.509469
0.526718
0.544218
0.56194
0.579832
0.597846
0.615908
0.633946
0.651855
0.669576
0.687061
0.704273
0.721272
0.73819
0.755212
0.772527
0.790223
0.808224
0.826293
0.844034
0.861326
0.877884
0.894131
0.911299
0.93055
0.951715
0.972359
0.99082
1.00855
1.0251
1.04526
1.06627
1.08499
1.10699
1.13189
1.15521
1.17986
1.20558
1.23095
1.25412
1.27128
1.29964
1.32469
1.3504
1.37071
1.3945
1.41592
1.44345
1.46754
1.48867
1.50961
1.53023
1.55044
1.57019
1.58951
1.6083
1.62658
1.64428
1.66137
1.67785
1.69367
1.7088
1.72324
1.7369
1.74981
1.76193
1.7732
1.78361
1.79315
1.8017
1.80929
1.81585
1.82126
1.82536
1.8276
1.82643
1.81978
1.80873
1.80134
1.80023
1.79648
1.79188
1.7871
1.78302
1.77447
1.77113
1.75855
1.7552
1.74868
1.73669
1.7267
1.71507
1.70569
1.69665
1.68812
1.67262
1.65972
1.64304
1.62974
1.61747
1.60441
1.58843
1.57261
1.55784
1.54218
1.52639
1.51196
1.49789
1.4841
1.47045
1.45685
1.44331
1.43001
1.42388
1.45978
1.4381
1.42022
1.40619
1.39334
1.38116
1.36893
1.35729
1.34804
1.28223
1.25145
1.24902
1.30622
0.00479838
0.0285633
0.0399721
0.0482444
0.0553363
0.0618712
0.0681447
0.0743299
0.080531
0.0868129
0.0932108
0.0997425
0.10642
0.113248
0.120238
0.127397
0.134742
0.142285
0.150044
0.158035
0.166276
0.174782
0.183566
0.192645
0.202027
0.211726
0.22175
0.232104
0.242798
0.253837
0.265227
0.276972
0.289074
0.301538
0.31437
0.327564
0.34113
0.355064
0.369372
0.384051
0.399102
0.414526
0.430322
0.446489
0.46303
0.479938
0.497218
0.51487
0.53289
0.551274
0.570022
0.589131
0.6086
0.628414
0.648562
0.669039
0.68982
0.710872
0.732165
0.75365
0.775272
0.796978
0.818721
0.840449
0.862177
0.883936
0.905841
0.928041
0.950692
0.973921
0.997719
1.02204
1.04675
1.07173
1.09704
1.12297
1.14989
1.17786
1.20649
1.23496
1.26287
1.29061
1.31886
1.34821
1.37737
1.40685
1.43658
1.46679
1.497
1.52727
1.55724
1.58697
1.61618
1.64589
1.67621
1.7067
1.73597
1.76439
1.7927
1.82103
1.85065
1.8788
1.90582
1.9323
1.95828
1.98374
2.00862
2.03291
2.05655
2.07951
2.10177
2.12327
2.14399
2.16387
2.18291
2.20104
2.21825
2.23449
2.24971
2.26392
2.27704
2.28906
2.29992
2.30958
2.31801
2.32513
2.33089
2.33509
2.33755
2.33843
2.33985
2.34163
2.34016
2.33602
2.33226
2.33042
2.32641
2.3191
2.31401
2.3046
2.29983
2.28946
2.27573
2.26581
2.25568
2.24454
2.23188
2.21698
2.19862
2.18434
2.16896
2.1541
2.1374
2.11895
2.10048
2.08307
2.06537
2.04662
2.02843
2.00983
1.9912
1.97271
1.95434
1.93605
1.91787
1.8999
1.88436
1.87732
1.86011
1.84029
1.82171
1.80398
1.78697
1.77024
1.75386
1.73834
1.7074
1.6725
1.65888
1.66404
0.00718382
0.0395298
0.0536171
0.0635984
0.0720458
0.0797711
0.087154
0.0944073
0.101662
0.108996
0.116459
0.124073
0.131854
0.139811
0.14795
0.156284
0.164822
0.173579
0.182571
0.191815
0.201328
0.211125
0.221225
0.231637
0.242375
0.253453
0.264878
0.276662
0.288811
0.301331
0.314231
0.327516
0.341188
0.355255
0.369721
0.384585
0.399852
0.415525
0.431607
0.448098
0.464999
0.482313
0.500038
0.518178
0.536729
0.555694
0.575076
0.594872
0.615086
0.635712
0.656756
0.678215
0.700089
0.722375
0.745068
0.768163
0.791651
0.81551
0.839738
0.864295
0.889157
0.914292
0.939671
0.965284
0.991121
1.01723
1.04368
1.07058
1.09805
1.12616
1.15497
1.18445
1.21451
1.2451
1.27619
1.30788
1.34022
1.37318
1.4066
1.44017
1.47375
1.5074
1.54133
1.57557
1.61003
1.64471
1.67959
1.71464
1.74978
1.78491
1.81997
1.85493
1.88979
1.92463
1.95927
1.99364
2.02755
2.06111
2.0943
2.12735
2.16024
2.19249
2.224
2.25489
2.28515
2.31478
2.34375
2.37202
2.39953
2.42625
2.45214
2.47714
2.50123
2.52438
2.54652
2.56762
2.58765
2.60656
2.62431
2.64088
2.65621
2.67027
2.68302
2.69442
2.70443
2.71304
2.72025
2.72606
2.73051
2.73381
2.73633
2.7376
2.73638
2.73343
2.73009
2.72676
2.72166
2.71473
2.70743
2.69841
2.68979
2.67849
2.66527
2.65282
2.63985
2.62564
2.61012
2.5929
2.57418
2.55667
2.53873
2.52016
2.5004
2.47952
2.4585
2.43778
2.41648
2.39467
2.37294
2.35086
2.32864
2.30643
2.28431
2.26223
2.24028
2.21849
2.19754
2.17892
2.15837
2.1363
2.1143
2.09274
2.07176
2.05117
2.03109
2.01211
1.99042
1.96746
1.95066
1.93877
0.00958976
0.0497022
0.0662983
0.0778841
0.0875681
0.0963307
0.10463
0.112724
0.120774
0.128881
0.137109
0.145498
0.15407
0.162841
0.171819
0.181017
0.190444
0.200114
0.210041
0.220241
0.23073
0.241524
0.252636
0.264084
0.275877
0.28803
0.300555
0.313457
0.326749
0.340439
0.354534
0.369042
0.383964
0.399314
0.41509
0.431298
0.447945
0.465034
0.482567
0.500546
0.518978
0.53786
0.557197
0.576994
0.597251
0.617967
0.63915
0.660796
0.682916
0.705504
0.728565
0.752106
0.776128
0.800626
0.825612
0.851081
0.877028
0.903455
0.930355
0.957713
0.985523
1.01377
1.04244
1.07153
1.10106
1.13102
1.1615
1.19254
1.22421
1.25657
1.28964
1.32341
1.35782
1.39283
1.42839
1.46449
1.50113
1.53827
1.57585
1.61377
1.65194
1.69035
1.72901
1.76792
1.80706
1.8464
1.88587
1.92543
1.96503
2.00464
2.04421
2.08371
2.1231
2.16234
2.20135
2.24007
2.27845
2.31651
2.35401
2.39118
2.42796
2.46422
2.49984
2.53479
2.56904
2.60257
2.63534
2.6673
2.6984
2.72862
2.75789
2.78618
2.81341
2.8396
2.86464
2.88853
2.91121
2.93264
2.95276
2.97156
2.98897
3.00498
3.01952
3.03257
3.0441
3.05412
3.06264
3.06972
3.07545
3.07984
3.08288
3.08412
3.08333
3.08088
3.07742
3.07307
3.0672
3.05981
3.05125
3.04135
3.03055
3.0181
3.00419
2.98963
2.97408
2.95735
2.93948
2.92033
2.9002
2.87992
2.85903
2.83728
2.81469
2.79132
2.76754
2.74348
2.71888
2.69385
2.66863
2.64312
2.61743
2.59162
2.56581
2.54002
2.51432
2.48873
2.46346
2.43883
2.41394
2.38864
2.3632
2.33792
2.31307
2.28867
2.26492
2.2423
2.22058
2.19962
2.18044
2.16243
0.0118915
0.0589357
0.0778161
0.090886
0.101713
0.111419
0.120529
0.129342
0.138046
0.146765
0.155585
0.164556
0.173717
0.18309
0.19269
0.202532
0.212629
0.222992
0.233634
0.244571
0.255818
0.267388
0.279297
0.291557
0.304184
0.317187
0.330581
0.344377
0.358581
0.373206
0.388259
0.403749
0.419682
0.436069
0.452913
0.470221
0.488
0.506253
0.52499
0.544211
0.563923
0.584133
0.604839
0.626051
0.647772
0.670004
0.692756
0.716028
0.739829
0.764161
0.789033
0.814446
0.840413
0.866933
0.894018
0.921671
0.949892
0.978688
1.00807
1.03802
1.06854
1.09965
1.13132
1.16358
1.19641
1.22984
1.2639
1.29861
1.33402
1.37014
1.407
1.44457
1.48283
1.52173
1.56124
1.60131
1.64193
1.68306
1.72466
1.76668
1.80907
1.85179
1.89481
1.93811
1.98164
2.02536
2.06923
2.11318
2.15716
2.20114
2.24509
2.28895
2.3327
2.37628
2.41965
2.46273
2.50545
2.54782
2.58954
2.63083
2.67164
2.71191
2.75152
2.79042
2.82856
2.86588
2.90236
2.93793
2.97256
3.00619
3.03876
3.07024
3.10057
3.12972
3.15761
3.18422
3.20948
3.23336
3.25582
3.2768
3.29626
3.31418
3.33048
3.34515
3.35818
3.36954
3.37928
3.38745
3.39411
3.39926
3.40279
3.40438
3.40393
3.40169
3.39804
3.39307
3.38657
3.37851
3.36899
3.35805
3.34579
3.33202
3.31683
3.30048
3.28288
3.26403
3.24402
3.22281
3.20064
3.17779
3.15415
3.12957
3.10417
3.07802
3.05129
3.02403
2.99618
2.96787
2.93921
2.91023
2.88097
2.85151
2.82196
2.79236
2.76279
2.73328
2.70391
2.67472
2.64559
2.61645
2.58722
2.55808
2.52928
2.50094
2.47333
2.44684
2.42191
2.39841
2.37622
2.35463
0.0140006
0.067112
0.0880131
0.102419
0.114284
0.124848
0.13469
0.144141
0.153414
0.162651
0.171952
0.181387
0.191004
0.200835
0.210905
0.221233
0.231834
0.24272
0.253907
0.265408
0.277236
0.289407
0.301932
0.314827
0.328104
0.341775
0.355855
0.370351
0.385278
0.400644
0.416462
0.432739
0.449482
0.466706
0.484414
0.502618
0.521323
0.540536
0.56027
0.580527
0.601316
0.622643
0.644516
0.666942
0.689929
0.713478
0.737605
0.762312
0.787609
0.813505
0.840007
0.867122
0.894867
0.923241
0.952262
0.981938
1.01228
1.04328
1.07497
1.10734
1.1404
1.17416
1.20862
1.24378
1.27965
1.31624
1.35356
1.39164
1.43047
1.47007
1.51044
1.55157
1.59343
1.63599
1.67923
1.72309
1.76756
1.81258
1.85814
1.90417
1.95064
1.99751
2.04472
2.09225
2.14005
2.18806
2.23624
2.28454
2.33289
2.38125
2.42958
2.47783
2.52595
2.57389
2.6216
2.66901
2.71605
2.76269
2.80862
2.85405
2.89893
2.94321
2.98679
3.0296
3.07157
3.11264
3.15279
3.19193
3.23003
3.26702
3.30285
3.33747
3.37085
3.40289
3.43358
3.46285
3.49066
3.51697
3.54168
3.56482
3.58629
3.60608
3.6241
3.64037
3.65483
3.6675
3.67839
3.68755
3.69502
3.7008
3.70477
3.7067
3.70653
3.70441
3.70057
3.69514
3.68806
3.6793
3.66889
3.6569
3.64338
3.62826
3.61164
3.59359
3.57415
3.55334
3.53123
3.50788
3.48346
3.4581
3.43177
3.40444
3.37618
3.3471
3.3173
3.28684
3.25572
3.22404
3.19188
3.15932
3.12641
3.09319
3.0598
3.02628
2.99273
2.95916
2.92564
2.89219
2.85879
2.82546
2.79216
2.75896
2.72606
2.69365
2.66202
2.63153
2.6026
2.57538
2.54973
2.52478
0.0158582
0.0741683
0.0968078
0.112381
0.125165
0.136496
0.146995
0.157018
0.166795
0.176484
0.186196
0.196014
0.205997
0.216189
0.22662
0.237315
0.248294
0.259573
0.271166
0.283089
0.295355
0.307977
0.320969
0.334346
0.348118
0.362299
0.376904
0.391943
0.407427
0.42337
0.439782
0.456674
0.474055
0.491941
0.510339
0.529259
0.548713
0.568708
0.589259
0.610372
0.632057
0.654325
0.677186
0.70065
0.724726
0.749426
0.774757
0.800732
0.827364
0.854663
0.882638
0.911306
0.940679
0.970766
1.00158
1.03314
1.06546
1.09854
1.1324
1.16705
1.2025
1.23875
1.27582
1.31371
1.35243
1.39197
1.43235
1.47357
1.51564
1.55854
1.60228
1.64684
1.69219
1.73831
1.78517
1.83274
1.88099
1.92986
1.97933
2.02934
2.07985
2.13081
2.18218
2.2339
2.28593
2.33823
2.39072
2.44336
2.49608
2.54882
2.60153
2.65418
2.70668
2.75899
2.81104
2.86277
2.9141
2.96499
3.01512
3.06466
3.11361
3.16188
3.20938
3.25604
3.30179
3.34656
3.39029
3.43294
3.47442
3.5147
3.55373
3.59142
3.62774
3.66262
3.69602
3.72787
3.75814
3.78677
3.8137
3.83888
3.86229
3.88386
3.90354
3.92132
3.93715
3.95106
3.96304
3.97311
3.98133
3.98767
3.99204
3.99428
3.99433
3.99227
3.98827
3.98245
3.9748
3.96533
3.95406
3.94104
3.92632
3.90988
3.89178
3.87209
3.85086
3.82813
3.80397
3.77844
3.75171
3.72384
3.69486
3.66477
3.63364
3.60158
3.56866
3.53497
3.5005
3.4654
3.42968
3.39347
3.35682
3.31978
3.28247
3.24496
3.20731
3.16959
3.13184
3.09407
3.05631
3.01865
2.98107
2.94364
2.90652
2.86994
2.83416
2.79956
2.76651
2.73527
2.70579
2.67722
0.017429
0.0800918
0.104183
0.120745
0.134317
0.146314
0.157392
0.167921
0.178145
0.18823
0.198299
0.208442
0.218727
0.229206
0.239916
0.25089
0.26215
0.273716
0.285605
0.297833
0.310415
0.323364
0.336693
0.350419
0.364551
0.379106
0.394096
0.409532
0.42543
0.441801
0.458659
0.476017
0.493884
0.512278
0.531209
0.550692
0.570736
0.591354
0.612566
0.634375
0.656801
0.679853
0.703545
0.727894
0.752909
0.778606
0.804996
0.832095
0.859921
0.888484
0.917803
0.947891
0.978767
1.01044
1.04294
1.07627
1.11045
1.14549
1.18142
1.21824
1.25596
1.29459
1.33416
1.37465
1.41608
1.45844
1.50175
1.546
1.59118
1.6373
1.68431
1.73223
1.78102
1.83066
1.88112
1.93236
1.98435
2.03706
2.09042
2.1444
2.19895
2.254
2.30952
2.36544
2.4217
2.47827
2.53508
2.59205
2.64913
2.70623
2.76332
2.82033
2.87719
2.93383
2.9902
3.0462
3.10178
3.15686
3.21112
3.26473
3.31766
3.36984
3.42118
3.47159
3.521
3.56935
3.61657
3.6626
3.70735
3.75079
3.79285
3.83347
3.8726
3.91017
3.94613
3.98042
4.013
4.04382
4.07278
4.09991
4.1251
4.14834
4.16955
4.18872
4.20582
4.22084
4.2338
4.24469
4.25358
4.26042
4.26514
4.26763
4.26783
4.2658
4.26162
4.25543
4.24723
4.23705
4.22494
4.21092
4.19502
4.17728
4.15773
4.13644
4.11345
4.08883
4.06265
4.03498
4.00592
3.97559
3.94399
3.91116
3.87718
3.84213
3.8061
3.76918
3.73137
3.6928
3.65354
3.61366
3.57325
3.53235
3.4911
3.44954
3.40777
3.36585
3.32382
3.28172
3.23959
3.19753
3.15558
3.11381
3.07241
3.03156
2.99157
2.95277
2.91553
2.88011
2.84654
2.81406
0.0186942
0.0849048
0.110168
0.12754
0.141764
0.154322
0.165892
0.176857
0.187467
0.197896
0.208272
0.218689
0.229223
0.239931
0.250858
0.262039
0.273501
0.285269
0.297362
0.309797
0.322592
0.335759
0.349315
0.363275
0.377649
0.392455
0.407706
0.423415
0.439598
0.456268
0.47344
0.49113
0.509349
0.528116
0.547446
0.567352
0.587851
0.608956
0.63069
0.653063
0.676093
0.699796
0.724189
0.749291
0.775119
0.801688
0.829016
0.857122
0.886028
0.915748
0.946301
0.977708
1.00999
1.04316
1.07725
1.11227
1.14823
1.18516
1.22308
1.262
1.30192
1.34287
1.38486
1.42789
1.47196
1.51708
1.56325
1.61046
1.65871
1.70798
1.75825
1.80951
1.86172
1.91487
1.96892
2.02383
2.07958
2.13611
2.19337
2.25131
2.30989
2.36904
2.4287
2.48881
2.5493
2.61012
2.6712
2.73247
2.79386
2.85528
2.91669
2.97799
3.03913
3.10002
3.16059
3.22077
3.28048
3.33964
3.39791
3.45544
3.51221
3.56814
3.62315
3.67714
3.73005
3.78177
3.83227
3.88147
3.92929
3.97568
4.02056
4.06389
4.10559
4.14562
4.18392
4.22043
4.2551
4.28788
4.3187
4.34752
4.3743
4.399
4.42155
4.44194
4.46012
4.4761
4.48988
4.50147
4.51091
4.51814
4.52313
4.52578
4.52606
4.52397
4.51959
4.513
4.50426
4.49338
4.48043
4.46541
4.44839
4.42937
4.40842
4.38557
4.36088
4.33442
4.30626
4.27648
4.24518
4.21242
4.17831
4.14281
4.10603
4.06806
4.02897
3.98888
3.94777
3.90582
3.86303
3.81954
3.7754
3.73069
3.68552
3.63996
3.59411
3.54802
3.50175
3.45536
3.40889
3.36247
3.31615
3.27005
3.22435
3.17923
3.13499
3.09195
3.05047
3.01079
2.97297
2.93636
0.0196546
0.0886547
0.114825
0.132831
0.147574
0.160584
0.172554
0.183879
0.194811
0.205527
0.216156
0.226799
0.237533
0.248419
0.259506
0.270833
0.282433
0.294331
0.30655
0.31911
0.332029
0.345323
0.359009
0.373102
0.387616
0.402567
0.417972
0.433844
0.450201
0.467057
0.484431
0.502339
0.520793
0.539819
0.559432
0.579648
0.600487
0.621968
0.644113
0.666939
0.690467
0.714716
0.739709
0.765467
0.792011
0.819361
0.847541
0.876571
0.906479
0.937283
0.969006
1.00167
1.03531
1.06993
1.10556
1.14222
1.17994
1.21873
1.25862
1.29961
1.34172
1.38497
1.42937
1.47492
1.52163
1.5695
1.61852
1.66869
1.72
1.77243
1.82596
1.88058
1.93623
1.99291
2.05057
2.10917
2.16868
2.22903
2.29019
2.35209
2.41468
2.4779
2.54166
2.60591
2.67057
2.73558
2.80087
2.86635
2.93194
2.99757
3.06314
3.12861
3.19387
3.25884
3.32345
3.38761
3.45124
3.51427
3.57632
3.63754
3.69791
3.75734
3.81575
3.87305
3.92915
3.98397
4.03746
4.08952
4.14009
4.18911
4.2365
4.28221
4.32619
4.36838
4.40869
4.4471
4.48354
4.51799
4.55033
4.58059
4.60867
4.63456
4.65818
4.67953
4.69856
4.71529
4.72968
4.74178
4.75158
4.75906
4.76419
4.7669
4.76714
4.76489
4.76022
4.7532
4.74389
4.73232
4.71852
4.70254
4.68442
4.66417
4.64186
4.61752
4.59122
4.563
4.53296
4.50115
4.46771
4.43265
4.3961
4.35804
4.31858
4.2778
4.23579
4.19262
4.14835
4.10311
4.05693
4.00993
3.96219
3.91378
3.86481
3.81536
3.76554
3.71539
3.665
3.61443
3.56374
3.51307
3.4625
3.41216
3.36223
3.3129
3.26447
3.21723
3.17151
3.12758
3.08547
3.04464
0.0203199
0.0914049
0.118234
0.136709
0.151841
0.165192
0.177471
0.189075
0.200258
0.211199
0.222026
0.232842
0.243725
0.254738
0.265934
0.277354
0.289032
0.300998
0.313278
0.325891
0.338861
0.352203
0.365936
0.380079
0.394645
0.409653
0.425122
0.441065
0.457503
0.474453
0.491935
0.509967
0.528567
0.547761
0.567567
0.588006
0.609102
0.630875
0.653355
0.676559
0.700514
0.725244
0.750775
0.777134
0.804345
0.832433
0.861427
0.89135
0.922235
0.954105
0.986988
1.02091
1.0559
1.09197
1.12917
1.16751
1.20701
1.24769
1.28959
1.3327
1.37706
1.42266
1.46952
1.51766
1.56706
1.61773
1.66966
1.72285
1.77727
1.83292
1.88975
1.94776
2.0069
2.06714
2.12843
2.19073
2.25401
2.31819
2.38322
2.44904
2.5156
2.5828
2.65058
2.71887
2.78758
2.85665
2.92598
2.99549
3.0651
3.13471
3.20424
3.27361
3.34273
3.41151
3.47986
3.54769
3.61492
3.68148
3.74697
3.81153
3.87512
3.93768
3.99911
4.05931
4.11821
4.17571
4.23176
4.28627
4.33917
4.39039
4.43987
4.48755
4.53336
4.57726
4.61919
4.65909
4.69691
4.73261
4.76611
4.7974
4.82643
4.85315
4.87751
4.89951
4.9191
4.93627
4.95103
4.96339
4.97334
4.98088
4.98597
4.98856
4.98862
4.98609
4.98105
4.97354
4.96362
4.95133
4.9367
4.91978
4.90059
4.87918
4.85557
4.82984
4.80201
4.77214
4.74034
4.70664
4.67118
4.63398
4.59514
4.55469
4.51272
4.46931
4.42453
4.37849
4.33124
4.2829
4.2335
4.18319
4.13204
4.08011
4.02754
3.9744
3.92079
3.86679
3.81247
3.75793
3.70322
3.64849
3.59386
3.53944
3.48545
3.43207
3.37958
3.32826
3.27842
3.23031
3.18399
3.13901
0.0207004
0.0932268
0.120488
0.139278
0.154673
0.168259
0.180752
0.192552
0.203912
0.21501
0.225975
0.236907
0.247887
0.258977
0.270231
0.281692
0.293397
0.305377
0.317659
0.330268
0.343225
0.356551
0.370265
0.384389
0.398938
0.413934
0.429396
0.445342
0.461793
0.478768
0.496292
0.514385
0.533069
0.552373
0.572319
0.592933
0.614241
0.636269
0.65905
0.682607
0.706972
0.732174
0.758241
0.785206
0.813099
0.84195
0.87179
0.90265
0.934567
0.967565
1.00168
1.03693
1.07337
1.111
1.14987
1.19
1.2314
1.27411
1.31815
1.36352
1.41026
1.45835
1.50782
1.55868
1.61091
1.6645
1.71947
1.77578
1.83343
1.89238
1.9526
2.01407
2.07675
2.14058
2.20552
2.27153
2.33855
2.4065
2.47533
2.54499
2.61538
2.68643
2.75806
2.83019
2.90272
2.97559
3.04869
3.12194
3.19524
3.26849
3.3416
3.4145
3.48707
3.55922
3.63086
3.70191
3.77226
3.84186
3.91029
3.97768
4.04399
4.10914
4.17305
4.23562
4.29676
4.3564
4.41445
4.47085
4.52552
4.57839
4.62941
4.67851
4.72562
4.77071
4.81372
4.85459
4.89328
4.92975
4.96392
4.9958
5.02532
5.05247
5.07716
5.09941
5.11918
5.13647
5.15129
5.1636
5.17345
5.18081
5.18565
5.18796
5.18767
5.18471
5.17918
5.1711
5.16053
5.14749
5.13204
5.11419
5.094
5.07148
5.04668
5.01964
4.99042
4.95906
4.92565
4.89025
4.85294
4.8138
4.7729
4.73027
4.68601
4.64019
4.5929
4.54423
4.49424
4.44305
4.39071
4.33735
4.28306
4.22787
4.17197
4.1154
4.05829
4.0007
3.94273
3.88449
3.82604
3.76755
3.70911
3.65087
3.59307
3.53587
3.47955
3.42436
3.37062
3.31852
3.26817
3.21922
0.0208256
0.0941972
0.121683
0.140643
0.156185
0.169902
0.182516
0.194426
0.205887
0.217072
0.228112
0.239103
0.250126
0.261242
0.272506
0.283961
0.295645
0.307591
0.319828
0.332383
0.34528
0.35854
0.372188
0.386245
0.400731
0.41567
0.431086
0.446998
0.463425
0.480394
0.497931
0.51606
0.534811
0.554217
0.574302
0.595096
0.61663
0.638938
0.662058
0.686018
0.710854
0.7366
0.763291
0.790963
0.819653
0.849394
0.880223
0.912177
0.945293
0.979604
1.01514
1.05195
1.09005
1.12947
1.17025
1.21241
1.25597
1.30096
1.3474
1.39529
1.44466
1.4955
1.54782
1.60163
1.65691
1.71364
1.77183
1.83144
1.89246
1.95484
2.01854
2.08355
2.14979
2.21723
2.2858
2.35544
2.42611
2.49771
2.57019
2.64346
2.71745
2.79207
2.86724
2.94286
3.01884
3.09509
3.17151
3.24802
3.3245
3.40085
3.477
3.55283
3.62824
3.70314
3.77744
3.85103
3.92384
3.99579
4.06648
4.136
4.20431
4.27135
4.33703
4.40125
4.46393
4.52498
4.58434
4.64192
4.69766
4.75149
4.80336
4.85321
4.90097
4.94661
4.99005
5.03129
5.07024
5.10691
5.1412
5.17312
5.20262
5.22968
5.25424
5.27631
5.29586
5.31288
5.32737
5.33933
5.34878
5.35569
5.36006
5.36186
5.36104
5.35749
5.35135
5.34262
5.33136
5.31757
5.3013
5.28258
5.26144
5.23792
5.21204
5.18386
5.1534
5.12072
5.08591
5.049
5.01011
4.96926
4.92655
4.88203
4.83576
4.78784
4.73833
4.68735
4.63494
4.58124
4.52627
4.4702
4.41309
4.35501
4.29612
4.23648
4.17621
4.11539
4.05414
3.99255
3.93072
3.86879
3.80689
3.74519
3.6839
3.6232
3.56335
3.5046
3.44723
3.39145
3.33736
3.2847
0.0207225
0.0943797
0.121902
0.140902
0.15648
0.17023
0.182874
0.194811
0.206296
0.2175
0.22855
0.239544
0.250558
0.261653
0.272882
0.284291
0.295919
0.307798
0.31996
0.332433
0.345243
0.358416
0.371977
0.385951
0.400362
0.415235
0.430596
0.44647
0.462884
0.479867
0.497451
0.515663
0.534536
0.554109
0.574412
0.595477
0.617343
0.640057
0.663663
0.688193
0.713689
0.740189
0.767734
0.796366
0.826126
0.857052
0.889187
0.922568
0.957241
0.993237
1.03059
1.06935
1.10953
1.15117
1.19429
1.23892
1.28508
1.33279
1.38206
1.43289
1.48529
1.53927
1.5948
1.6519
1.71054
1.77069
1.83233
1.89545
1.95998
2.0259
2.09316
2.16171
2.23149
2.30244
2.37449
2.44759
2.52166
2.59661
2.67237
2.74887
2.82601
2.90371
2.98187
3.0604
3.13919
3.21817
3.29722
3.37624
3.45515
3.53382
3.61217
3.69009
3.76748
3.84425
3.92031
3.99554
4.06989
4.14327
4.21529
4.28602
4.35542
4.42344
4.48997
4.55493
4.61824
4.67982
4.7396
4.7975
4.85347
4.90743
4.95934
5.00912
5.05676
5.10218
5.14535
5.18622
5.22478
5.26097
5.29474
5.3261
5.355
5.38144
5.40535
5.42675
5.44562
5.46195
5.47574
5.487
5.49572
5.50191
5.50558
5.50667
5.50512
5.50085
5.49399
5.48455
5.47255
5.458
5.44096
5.42143
5.39946
5.37506
5.34826
5.3191
5.28762
5.25386
5.2179
5.17976
5.13956
5.09732
5.05314
5.00704
4.95912
4.90945
4.85811
4.80519
4.75075
4.69493
4.63775
4.57937
4.51987
4.45931
4.39785
4.33556
4.27257
4.20896
4.14485
4.08034
4.01555
3.95062
3.8857
3.82094
3.75657
3.69276
3.62977
3.56784
3.50721
3.44812
3.39067
3.33467
0.0203782
0.0938982
0.121262
0.140168
0.155672
0.169359
0.181947
0.193834
0.205268
0.216421
0.227419
0.238355
0.249306
0.260333
0.271489
0.282819
0.294361
0.306151
0.31822
0.3306
0.34332
0.356408
0.369893
0.383806
0.398174
0.413027
0.428398
0.444316
0.460816
0.47793
0.495698
0.514156
0.533339
0.553298
0.574063
0.595667
0.618161
0.641605
0.666056
0.691552
0.718138
0.745859
0.774761
0.804892
0.836295
0.869014
0.903093
0.938573
0.975497
1.0139
1.05381
1.09526
1.13829
1.18291
1.22914
1.277
1.32649
1.37762
1.43041
1.48483
1.54088
1.59855
1.65781
1.71865
1.78103
1.84491
1.91026
1.97705
2.0452
2.11469
2.18544
2.2574
2.3305
2.40467
2.47985
2.55595
2.63291
2.71063
2.78903
2.86804
2.94756
3.0275
3.10777
3.18827
3.2689
3.34958
3.43019
3.51065
3.59085
3.67069
3.75008
3.82892
3.90709
3.98453
4.06112
4.13678
4.21144
4.28504
4.35719
4.42794
4.49725
4.56507
4.6313
4.69588
4.75871
4.81972
4.87885
4.93602
4.99119
5.04428
5.09526
5.14406
5.19065
5.23498
5.27702
5.31673
5.35409
5.38907
5.42162
5.45175
5.47942
5.50463
5.52733
5.54755
5.56525
5.58044
5.59312
5.6033
5.61099
5.61618
5.61889
5.61908
5.61658
5.61148
5.60381
5.5936
5.58086
5.56559
5.54783
5.5276
5.50491
5.4798
5.45227
5.42236
5.3901
5.35553
5.31871
5.27966
5.23849
5.19521
5.14993
5.10265
5.05348
5.00248
4.94972
4.89531
4.83928
4.78179
4.72286
4.66265
4.60123
4.53867
4.47512
4.41067
4.34545
4.27953
4.21305
4.14612
4.07886
4.01142
3.94394
3.8766
3.80961
3.74316
3.67749
3.61281
3.54938
3.48741
3.42704
3.36815
0.0198744
0.0926407
0.119687
0.138384
0.153716
0.167251
0.179702
0.191465
0.202785
0.213834
0.224734
0.235579
0.246443
0.257387
0.268464
0.279718
0.291191
0.302919
0.314938
0.327283
0.339987
0.353084
0.366608
0.380596
0.39508
0.410101
0.425697
0.441908
0.458777
0.476348
0.494662
0.513759
0.533675
0.554487
0.576254
0.599031
0.622879
0.647842
0.673975
0.701325
0.729952
0.759904
0.791234
0.82399
0.858216
0.893953
0.931241
0.970113
1.01061
1.05274
1.09653
1.142
1.18917
1.23802
1.28857
1.34081
1.39471
1.45028
1.50749
1.56631
1.6267
1.68865
1.7521
1.81702
1.88337
1.95107
2.0201
2.0904
2.16189
2.23453
2.30825
2.38298
2.45865
2.53519
2.61253
2.69059
2.76931