/*--------------------------------*- C++ -*----------------------------------*\
  =========                 |
  \\      /  F ield         | OpenFOAM: The Open Source CFD Toolbox
   \\    /   O peration     | Website:  https://openfoam.org
    \\  /    A nd           | Version:  7
     \\/     M anipulation  |
\*---------------------------------------------------------------------------*/
FoamFile
{
    version     2.0;
    format      ascii;
    class       volScalarField;
    location    "600";
    object      nut;
}
// * * * * * * * * * * * * * * * * * * * * * * * * * * * * * * * * * * * * * //

dimensions      [0 2 -1 0 0 0 0];

internalField   nonuniform List<scalar> 
48900
(
0.00014303
8.81811e-06
7.61627e-06
7.6661e-06
9.04009e-06
1.11075e-05
1.28683e-05
1.40547e-05
1.47705e-05
1.51964e-05
1.54676e-05
1.56599e-05
1.58106e-05
1.59384e-05
1.60497e-05
1.61455e-05
1.6235e-05
1.63406e-05
0.000681001
0.000121993
8.83058e-05
6.77955e-05
5.89184e-05
5.56282e-05
5.49946e-05
5.55641e-05
5.66889e-05
5.80994e-05
5.96717e-05
6.13174e-05
6.29918e-05
6.46635e-05
6.63038e-05
6.7894e-05
6.94284e-05
7.09181e-05
0.000867267
0.000386073
0.000257673
0.00019557
0.000155463
0.000126012
0.000104824
8.99903e-05
7.98656e-05
7.30758e-05
6.86422e-05
6.5882e-05
6.43269e-05
6.36528e-05
6.36267e-05
6.40726e-05
6.48581e-05
6.58865e-05
0.000860274
0.000701883
0.000532856
0.000427794
0.000357996
0.000306366
0.000265931
0.000233434
0.000207136
0.000185756
0.000168341
0.000154079
0.000142337
0.000132649
0.00012454
0.000117798
0.00011222
0.000107718
0.000853033
0.00082601
0.000740147
0.000651261
0.000577846
0.000518207
0.000469157
0.000428024
0.000393088
0.000363194
0.000337485
0.000315278
0.000296011
0.000279222
0.000264542
0.000251674
0.000240407
0.000230667
0.000852074
0.000848455
0.000827122
0.00078404
0.000735718
0.000688977
0.00064619
0.000607722
0.000573315
0.000542581
0.000515125
0.000490587
0.000468637
0.000448986
0.000431381
0.00041562
0.000401554
0.000389147
0.000851885
0.000851701
0.000847612
0.000835953
0.000815152
0.000789815
0.000762755
0.0007357
0.000709565
0.000684801
0.000661605
0.000640034
0.000620072
0.000601664
0.000584741
0.000569238
0.000555119
0.000542424
0.000851892
0.000851672
0.000851188
0.000848796
0.000842966
0.000833708
0.000821265
0.000807038
0.000791761
0.000776098
0.000760464
0.000745154
0.000730358
0.0007162
0.000702758
0.000690085
0.000678238
0.000667332
0.000851893
0.000851574
0.000851341
0.000850931
0.000849768
0.00084729
0.000843211
0.000837687
0.000830895
0.000823223
0.000814896
0.000806176
0.000797295
0.000788384
0.000779574
0.000770964
0.000762646
0.000754737
0.000851891
0.000851539
0.000851242
0.000850995
0.000850694
0.000850132
0.000849099
0.00084747
0.000845177
0.000842274
0.000838817
0.000834888
0.000830621
0.000826085
0.000821373
0.000816564
0.000811721
0.000806863
0.000851888
0.000851516
0.000851184
0.000850895
0.000850641
0.000850384
0.000850062
0.000849603
0.000848946
0.00084805
0.000846895
0.000845486
0.000843837
0.000841977
0.000839936
0.000837749
0.000835455
0.000833116
0.000851886
0.000851499
0.000851148
0.000850832
0.000850548
0.00085029
0.000850045
0.000849796
0.000849518
0.000849186
0.000848781
0.000848288
0.000847697
0.000847007
0.000846221
0.000845344
0.000844389
0.000843374
0.000851885
0.000851488
0.000851124
0.000850791
0.000850488
0.00085021
0.000849953
0.000849713
0.000849483
0.000849257
0.000849023
0.000848774
0.000848502
0.000848201
0.000847866
0.000847495
0.000847088
0.000846649
0.000851883
0.000851479
0.000851104
0.000850759
0.00085044
0.000850145
0.000849871
0.000849616
0.000849376
0.000849151
0.000848938
0.000848734
0.000848536
0.00084834
0.000848144
0.000847944
0.00084774
0.000847529
0.000851882
0.000851472
0.000851088
0.000850733
0.000850403
0.000850095
0.000849808
0.000849538
0.000849285
0.000849046
0.000848821
0.000848608
0.000848406
0.000848214
0.000848031
0.000847855
0.000847685
0.00084752
0.000851881
0.000851466
0.000851077
0.000850713
0.000850374
0.000850057
0.000849759
0.000849479
0.000849215
0.000848965
0.000848728
0.000848503
0.000848289
0.000848085
0.000847891
0.000847705
0.000847528
0.000847357
0.000851881
0.000851463
0.000851069
0.000850699
0.000850354
0.000850029
0.000849724
0.000849436
0.000849164
0.000848905
0.000848659
0.000848425
0.000848202
0.000847988
0.000847784
0.000847589
0.000847402
0.000847223
0.000851881
0.00085146
0.000851064
0.000850691
0.000850341
0.000850012
0.000849702
0.000849408
0.00084913
0.000848865
0.000848613
0.000848372
0.000848142
0.000847922
0.000847711
0.000847509
0.000847316
0.00084713
0.000851881
0.00085146
0.000851063
0.000850689
0.000850337
0.000850006
0.000849693
0.000849396
0.000849114
0.000848846
0.00084859
0.000848345
0.000848111
0.000847887
0.000847672
0.000847466
0.000847269
0.000847079
0.000851881
0.000851462
0.000851066
0.000850694
0.000850344
0.000850014
0.000849702
0.000849406
0.000849124
0.000848855
0.000848599
0.000848354
0.000848119
0.000847894
0.000847678
0.000847472
0.000847273
0.000847083
0.000851882
0.000851465
0.000851073
0.000850705
0.000850359
0.000850033
0.000849725
0.000849433
0.000849154
0.000848889
0.000848635
0.000848392
0.00084816
0.000847937
0.000847724
0.000847519
0.000847322
0.000847132
0.000851883
0.000851471
0.000851085
0.000850724
0.000850386
0.000850068
0.000849767
0.000849483
0.000849211
0.000848951
0.000848701
0.000848458
0.000848219
0.000847983
0.000847747
0.00084751
0.000847269
0.000847023
0.000851886
0.00085148
0.000851104
0.000850755
0.000850431
0.000850128
0.000849837
0.000849547
0.000849244
0.000848913
0.000848539
0.000848112
0.000847623
0.000847069
0.000846447
0.00084576
0.000845009
0.000844196
0.000851892
0.000851495
0.000851137
0.000850813
0.000850492
0.000850102
0.000849546
0.000848738
0.00084762
0.000846166
0.00084438
0.000842283
0.000839909
0.000837298
0.000834489
0.00083152
0.000828427
0.000825234
0.000851927
0.000851533
0.000851204
0.000850638
0.000849321
0.000846678
0.000842714
0.000837423
0.000830973
0.000823819
0.000816025
0.000807857
0.000799477
0.00079101
0.000782555
0.00077418
0.000765938
0.000757847
0.000852191
0.000851739
0.000849728
0.000842995
0.000831105
0.000814639
0.000795988
0.000776344
0.000756568
0.000737151
0.000718355
0.00070032
0.000683112
0.000666756
0.000651254
0.000636588
0.000622725
0.000609607
0.000854696
0.000847058
0.000821414
0.000777179
0.000730037
0.000685707
0.00064565
0.000609715
0.000577365
0.000548078
0.000521451
0.000497185
0.000475044
0.000454831
0.000436369
0.000419495
0.000404051
0.000389883
0.000866007
0.000775095
0.000646667
0.000551618
0.00048395
0.000431712
0.000389188
0.000353235
0.000322191
0.000295234
0.000271832
0.00025156
0.000234031
0.00021888
0.000205772
0.000194425
0.000184555
0.000175963
0.000583452
0.000421708
0.000302146
0.000244285
0.000205122
0.000174688
0.000150603
0.000132049
0.000117999
0.000107579
9.99518e-05
9.44151e-05
9.04283e-05
8.75922e-05
8.56166e-05
8.42912e-05
8.34622e-05
8.30158e-05
1.80953e-05
0.000109921
8.4618e-05
7.46081e-05
7.40767e-05
7.56143e-05
7.684e-05
7.73017e-05
7.72069e-05
7.68633e-05
7.64914e-05
7.62072e-05
7.60545e-05
7.60366e-05
7.6138e-05
7.63371e-05
7.66116e-05
7.6941e-05
6.16738e-08
7.69054e-07
1.6101e-06
2.32849e-06
2.93743e-06
3.47581e-06
4.00519e-06
4.5401e-06
5.09583e-06
5.68645e-06
6.31784e-06
6.99736e-06
7.71804e-06
8.48673e-06
9.30294e-06
1.01666e-05
1.10864e-05
1.20613e-05
1.31031e-05
1.42109e-05
1.53942e-05
1.6662e-05
1.80122e-05
1.94543e-05
2.09979e-05
2.2637e-05
2.43815e-05
2.62349e-05
2.82019e-05
3.02871e-05
3.24871e-05
3.48023e-05
3.72327e-05
3.97788e-05
4.24317e-05
4.52109e-05
4.8105e-05
5.11052e-05
5.4231e-05
5.74589e-05
6.08126e-05
6.42663e-05
6.783e-05
7.15191e-05
7.53025e-05
7.91916e-05
8.3203e-05
8.72841e-05
9.15025e-05
9.57826e-05
0.000100197
0.000104662
0.000109254
0.00011388
0.000118576
0.000123373
0.000128158
0.00013296
0.000137779
0.000142547
0.000147204
0.000151736
0.000156105
0.000160277
0.000164235
0.000167983
0.000171585
0.000175149
0.000178958
0.000182881
0.000186904
0.000191003
0.000194909
0.000197398
0.000199097
0.000197745
0.000196779
0.000197511
0.000205481
0.000214414
0.000207365
0.000211385
0.000202453
0.000185304
0.000183776
3.79532e-05
3.64705e-05
3.77173e-05
3.52737e-05
3.7068e-05
3.58191e-05
3.69862e-05
3.99566e-05
4.19889e-05
4.68668e-05
4.68948e-05
4.49224e-05
3.92533e-05
4.20222e-05
4.63964e-05
4.76471e-05
4.77942e-05
4.80321e-05
4.82797e-05
4.85016e-05
4.87133e-05
4.89133e-05
4.91024e-05
4.92789e-05
4.94439e-05
4.95908e-05
4.97373e-05
4.98576e-05
4.99656e-05
5.00605e-05
5.01554e-05
5.02232e-05
5.0278e-05
5.03187e-05
5.03455e-05
5.03581e-05
5.03562e-05
5.03261e-05
5.02932e-05
5.02446e-05
5.01856e-05
5.0146e-05
5.01451e-05
5.00456e-05
4.79296e-05
4.03659e-05
2.70014e-05
2.59089e-05
2.85665e-05
2.86861e-05
2.59639e-05
2.30965e-05
2.512e-05
2.19831e-05
2.37101e-05
1.95374e-05
1.99479e-05
2.27165e-05
2.02588e-05
1.94916e-05
1.64754e-05
1.60204e-05
1.67183e-05
1.96701e-05
1.75143e-05
1.64852e-05
1.3698e-05
1.34435e-05
1.41776e-05
1.40752e-05
1.34331e-05
1.19177e-05
1.13477e-05
1.05971e-05
1.026e-05
1.00026e-05
9.75654e-06
9.51098e-06
9.26945e-06
9.02716e-06
8.79355e-06
9.12802e-06
0.000145545
0.000127099
0.0001238
0.000121499
0.000119768
0.000117958
0.000115983
0.000115415
0.000118344
1.96275e-05
2.56461e-05
2.73758e-05
0.000244328
2.04195e-07
3.07495e-05
6.7782e-05
9.35734e-05
0.000111394
0.000123904
0.000132935
0.000139869
0.000145642
0.000150799
0.000155657
0.000160384
0.000165042
0.000169691
0.000174356
0.000179047
0.000183782
0.000188585
0.000193475
0.000198481
0.000203612
0.000208893
0.000214338
0.00021996
0.000225774
0.000231789
0.000238023
0.000244479
0.000251144
0.000258032
0.000265144
0.000272476
0.000280031
0.000287816
0.00029581
0.000304014
0.000312426
0.00032105
0.000329872
0.000338899
0.000348109
0.000357525
0.000367121
0.000376921
0.000386893
0.000397057
0.000407401
0.000417915
0.000428617
0.000439497
0.000450562
0.000461793
0.000473223
0.000484812
0.000496576
0.000508501
0.000520581
0.000532786
0.000545108
0.000557504
0.000569953
0.000582373
0.000594792
0.000607234
0.000619665
0.00063218
0.000644849
0.000657691
0.000670571
0.000683228
0.00069542
0.000706441
0.000715385
0.00072158
0.000725767
0.00072985
0.000735314
0.000744537
0.000757139
0.000759788
0.00074998
0.000730745
0.000693474
0.00064843
0.000609115
0.000596753
0.000600399
0.000622934
0.00062979
0.000644752
0.000664934
0.000690903
0.00070702
0.000702986
0.000723324
0.000739656
0.000753369
0.000768191
0.000781935
0.000793029
0.000820487
0.000833538
0.000842047
0.000850481
0.000858875
0.000867123
0.000875164
0.000883125
0.000890847
0.000898453
0.000905823
0.000912973
0.00091996
0.0009267
0.000933181
0.000939473
0.000945464
0.000951216
0.000956734
0.000961954
0.000966866
0.000971527
0.000975819
0.000979794
0.000983493
0.000986791
0.000989412
0.000987978
0.000976529
0.000944995
0.000897446
0.000874502
0.000880543
0.000874669
0.000868537
0.00086655
0.000869226
0.000859825
0.000867326
0.000852412
0.000870641
0.0008708
0.000840497
0.000844472
0.000843866
0.000848398
0.0008564
0.000854904
0.000823664
0.000828553
0.000823439
0.00083036
0.000834465
0.000820899
0.000811023
0.00080704
0.000807019
0.000806344
0.000802107
0.000801545
0.000797139
0.000792455
0.000787572
0.00078168
0.000774008
0.000765708
0.000777792
0.000957114
0.00093845
0.000933528
0.000921534
0.000917448
0.00091473
0.000910774
0.000911324
0.000893126
0.000519825
0.000355118
0.000359468
0.000620452
3.7486e-07
4.99951e-05
0.00011143
0.000158708
0.00019408
0.000220513
0.000240473
0.000255927
0.000268368
0.000278896
0.000288265
0.000296973
0.00030535
0.000313582
0.000321792
0.000330041
0.000338396
0.00034688
0.000355535
0.000364384
0.00037344
0.000382724
0.000392266
0.000402094
0.000412196
0.000422606
0.000433331
0.000444394
0.000455841
0.000467639
0.00047976
0.000492196
0.000504954
0.000518029
0.000531422
0.000545098
0.000559082
0.000573357
0.000587929
0.000602789
0.000617928
0.000633342
0.000649029
0.000664972
0.000681188
0.000697653
0.000714377
0.000731368
0.000748608
0.000766089
0.000783825
0.000801816
0.000820063
0.000838557
0.000857285
0.000876272
0.000895497
0.000914922
0.000934525
0.000954258
0.000974044
0.000993809
0.00101348
0.0010329
0.00105206
0.00107086
0.00108934
0.00110755
0.0011256
0.00114361
0.00116134
0.00117829
0.00119357
0.0012066
0.00121769
0.0012283
0.00124052
0.00125582
0.00127327
0.00128854
0.00129785
0.00130071
0.00129767
0.00129614
0.00129985
0.00131343
0.00133272
0.0013562
0.00137887
0.00140507
0.00143555
0.00146591
0.00148859
0.00150493
0.00152102
0.00154113
0.00156199
0.00158533
0.00160553
0.00162452
0.00164706
0.0016659
0.00168318
0.00170011
0.00171675
0.0017331
0.00174906
0.00176469
0.00177994
0.0017948
0.00180925
0.00182328
0.0018369
0.00185001
0.00186265
0.00187478
0.00188643
0.00189753
0.00190806
0.00191805
0.0019274
0.00193616
0.00194423
0.00195156
0.00195814
0.00196379
0.00196811
0.00196893
0.0019611
0.00193777
0.00190516
0.00188979
0.00189172
0.00189522
0.00189108
0.001882
0.00187644
0.00187126
0.00186554
0.00185589
0.00185298
0.00185228
0.00184245
0.00183336
0.0018191
0.00180694
0.00180553
0.00180637
0.00179613
0.00178403
0.00176626
0.00175314
0.00174647
0.00173665
0.00172408
0.00170953
0.00169669
0.00168514
0.0016709
0.00165907
0.00164805
0.00163737
0.00162682
0.00161613
0.00160512
0.0015938
0.00158904
0.00160525
0.0015708
0.0015493
0.00153773
0.00152666
0.00151791
0.00151014
0.00150538
0.00149753
0.0013916
0.00123928
0.00124238
0.00140995
5.61262e-07
6.49801e-05
0.000144241
0.000207192
0.000255908
0.000293482
0.000322679
0.000345762
0.00036453
0.00038036
0.000394285
0.000407031
0.000419103
0.000430841
0.00044246
0.000454104
0.000465869
0.000477806
0.00048997
0.000502395
0.000515109
0.000528136
0.000541512
0.000555243
0.000569348
0.000583845
0.000598721
0.00061399
0.000629634
0.000645657
0.000662082
0.000678915
0.000696133
0.000713733
0.000731697
0.000750011
0.000768677
0.000787703
0.000807095
0.000826853
0.000846985
0.00086748
0.0008883
0.000909452
0.000930913
0.000952689
0.000974782
0.00099718
0.00101988
0.00104287
0.00106615
0.00108973
0.00111358
0.00113772
0.00116214
0.00118682
0.00121175
0.0012369
0.00126227
0.00128776
0.0013133
0.00133879
0.00136409
0.00138908
0.00141357
0.00143753
0.00146094
0.00148392
0.00150673
0.00152961
0.00155275
0.00157597
0.00159886
0.00162088
0.00164189
0.00166241
0.00168368
0.00170685
0.00173207
0.00175812
0.00178324
0.00180635
0.00182814
0.00185031
0.00187427
0.00190042
0.00192799
0.00195624
0.00198483
0.00201442
0.00204521
0.00207585
0.00210471
0.00213116
0.00215618
0.00218131
0.002207
0.00223358
0.00225949
0.00228442
0.00230911
0.00233337
0.00235714
0.00238048
0.00240337
0.00242578
0.00244775
0.00246922
0.00249016
0.00251056
0.0025304
0.00254964
0.00256828
0.0025863
0.00260366
0.00262035
0.00263634
0.00265159
0.0026661
0.00267983
0.00269273
0.0027048
0.00271593
0.00272606
0.00273503
0.00274265
0.00274866
0.00275222
0.00275129
0.00274277
0.00272848
0.00272047
0.0027211
0.00272509
0.00272332
0.00271589
0.00270996
0.00270482
0.00269734
0.0026883
0.00267867
0.00267528
0.00267128
0.00265913
0.00264246
0.00262761
0.00261895
0.00261498
0.00260825
0.00259115
0.00256944
0.00254965
0.0025355
0.00252365
0.00250828
0.00248881
0.00246988
0.00245186
0.00243208
0.00241393
0.00239738
0.00238155
0.00236604
0.00235063
0.0023354
0.0023199
0.00230355
0.0022808
0.00224403
0.00221695
0.00219784
0.00218117
0.00216646
0.00215275
0.00214096
0.00213287
0.00212753
0.0021186
0.00212035
0.00213922
7.4939e-07
7.7118e-05
0.000171104
0.000247141
0.000307169
0.000354374
0.000391739
0.000421746
0.000446396
0.000467263
0.000485559
0.000502185
0.000517788
0.000532829
0.000547614
0.000562362
0.000577202
0.000592232
0.000607514
0.000623097
0.000639012
0.00065529
0.000671945
0.000689002
0.000706469
0.000724354
0.000742666
0.000761392
0.000780551
0.000800137
0.000820155
0.000840607
0.000861477
0.000882779
0.000904489
0.000926614
0.000949163
0.000972129
0.000995496
0.00101926
0.00104341
0.00106794
0.00109285
0.00111814
0.00114379
0.00116979
0.00119613
0.00122281
0.00124981
0.00127713
0.00130475
0.00133267
0.00136089
0.00138939
0.00141817
0.00144721
0.0014765
0.00150602
0.00153574
0.0015656
0.00159556
0.0016255
0.00165532
0.0016849
0.00171413
0.00174289
0.00177117
0.00179907
0.0018268
0.00185469
0.001883
0.00191188
0.0019412
0.00197073
0.00200023
0.00202976
0.00205964
0.00209031
0.00212204
0.00215454
0.00218733
0.00221995
0.00225237
0.00228488
0.0023177
0.00235084
0.00238417
0.00241751
0.00245073
0.00248392
0.00251709
0.00255012
0.00258274
0.00261477
0.00264629
0.00267731
0.00270797
0.0027384
0.00276854
0.00279816
0.00282734
0.00285622
0.00288468
0.00291263
0.00294006
0.00296693
0.00299324
0.00301896
0.00304407
0.00306855
0.00309236
0.00311551
0.00313791
0.00315963
0.00318055
0.00320071
0.00322004
0.00323855
0.00325615
0.00327288
0.00328864
0.00330342
0.00331711
0.00332965
0.00334085
0.00335055
0.0033585
0.00336438
0.0033678
0.0033681
0.00336607
0.00336521
0.00336697
0.0033697
0.0033697
0.00336651
0.00336289
0.00335884
0.00335315
0.00334616
0.00333782
0.00333175
0.00332577
0.0033155
0.00330255
0.00328972
0.00327854
0.00326919
0.00325851
0.00324189
0.00322231
0.0032031
0.00318611
0.00317031
0.00315252
0.00313212
0.00311163
0.00309115
0.00306956
0.00304856
0.00302855
0.00300902
0.00298974
0.00297059
0.00295159
0.00293236
0.00291146
0.00288438
0.00285213
0.00282379
0.00279989
0.00277868
0.00275918
0.00274063
0.00272326
0.00271001
0.00271139
0.00271885
0.00270961
0.00268441
9.294e-07
8.71038e-05
0.000193433
0.000280824
0.000350823
0.000406715
0.000451585
0.000488058
0.000518283
0.000543975
0.000566488
0.000586841
0.00060581
0.000623952
0.000641662
0.000659214
0.0006768
0.000694545
0.000712535
0.000730831
0.000749474
0.000768495
0.000787916
0.000807746
0.000828005
0.000848693
0.00086982
0.000891396
0.000913409
0.000935871
0.000958778
0.000982134
0.00100594
0.00103018
0.00105487
0.00108
0.00110556
0.00113156
0.00115799
0.00118485
0.00121211
0.0012398
0.00126788
0.00129635
0.00132521
0.00135443
0.00138402
0.00141394
0.0014442
0.00147478
0.00150567
0.00153686
0.00156834
0.00160009
0.00163212
0.0016644
0.00169692
0.00172967
0.00176263
0.00179575
0.00182901
0.00186235
0.00189568
0.00192894
0.00196203
0.0019949
0.00202752
0.00205996
0.00209237
0.00212495
0.00215794
0.00219149
0.00222566
0.00226033
0.0022954
0.00233074
0.00236639
0.00240241
0.00243884
0.00247566
0.00251274
0.00254993
0.00258715
0.00262442
0.00266171
0.00269899
0.00273625
0.00277342
0.00281043
0.00284718
0.0028837
0.00291995
0.00295591
0.00299158
0.0030269
0.0030618
0.00309621
0.00313015
0.00316381
0.00319698
0.00322969
0.00326198
0.00329377
0.00332502
0.00335569
0.00338577
0.00341524
0.00344408
0.00347226
0.00349976
0.00352654
0.00355259
0.00357788
0.0036024
0.00362608
0.00364894
0.00367091
0.00369199
0.00371213
0.00373129
0.00374944
0.00376653
0.00378248
0.0037972
0.00381059
0.00382245
0.00383262
0.00384096
0.00384741
0.00385216
0.00385577
0.00385909
0.00386252
0.00386549
0.00386691
0.00386653
0.00386499
0.00386236
0.0038584
0.00385325
0.00384685
0.00384021
0.00383291
0.00382388
0.00381347
0.0038023
0.00379065
0.00377859
0.00376522
0.00374923
0.00373171
0.00371379
0.00369596
0.00367787
0.00365861
0.00363806
0.00361704
0.00359552
0.00357327
0.00355088
0.00352878
0.00350686
0.00348503
0.00346323
0.00344144
0.00341952
0.00339676
0.0033712
0.00334312
0.00331538
0.00328935
0.00326523
0.00324254
0.00322074
0.00319999
0.00318203
0.00317125
0.00316264
0.00314611
0.00311887
1.09438e-06
9.52351e-05
0.000211866
0.00030915
0.000388013
0.000451824
0.000503663
0.000546242
0.0005818
0.000612156
0.000638751
0.000662715
0.000684912
0.000705981
0.000726401
0.000746506
0.000766536
0.000786651
0.00080697
0.000827567
0.000848496
0.000869795
0.000891482
0.000913582
0.000936106
0.000959059
0.000982453
0.00100628
0.00103056
0.00105528
0.00108046
0.00110608
0.00113215
0.00115867
0.00118563
0.00121304
0.0012409
0.00126919
0.00129792
0.00132709
0.00135668
0.00138668
0.0014171
0.00144791
0.00147912
0.00151069
0.00154264
0.00157492
0.00160753
0.00164047
0.00167372
0.00170725
0.00174106
0.00177514
0.00180949
0.00184408
0.00187892
0.00191397
0.00194926
0.00198474
0.00202038
0.00205618
0.0020921
0.00212807
0.00216406
0.00220004
0.00223601
0.00227199
0.00230807
0.00234436
0.00238099
0.00241809
0.00245569
0.00249379
0.00253232
0.00257118
0.00261033
0.00264973
0.00268934
0.00272914
0.00276909
0.00280914
0.00284921
0.00288929
0.00292934
0.0029693
0.00300919
0.00304894
0.00308851
0.00312786
0.00316694
0.00320575
0.00324425
0.00328244
0.00332027
0.0033577
0.0033947
0.00343121
0.00346746
0.00350316
0.00353837
0.00357309
0.0036073
0.00364095
0.00367401
0.00370647
0.00373831
0.00376949
0.0038
0.00382981
0.00385889
0.00388722
0.00391479
0.00394154
0.00396747
0.00399252
0.0040167
0.00403994
0.00406221
0.00408351
0.00410376
0.00412294
0.00414094
0.00415774
0.00417321
0.00418726
0.00419974
0.00421059
0.0042198
0.00422758
0.00423434
0.00424024
0.00424541
0.00424964
0.00425256
0.00425407
0.00425426
0.00425313
0.00425068
0.00424696
0.00424203
0.00423602
0.00422899
0.00422074
0.00421142
0.00420102
0.00418949
0.0041768
0.00416276
0.00414722
0.00413056
0.00411318
0.00409509
0.00407619
0.00405629
0.00403549
0.00401398
0.0039918
0.00396891
0.00394561
0.00392217
0.00389862
0.003875
0.00385128
0.00382751
0.00380359
0.00377929
0.00375393
0.00372718
0.0036998
0.00367289
0.00364705
0.00362226
0.00359836
0.00357549
0.00355462
0.00353689
0.00352033
0.00350125
0.00347639
1.23971e-06
0.00010173
0.000226828
0.0003326
0.000419336
0.000490341
0.000548631
0.000596949
0.000637589
0.000672427
0.00070297
0.000730421
0.000755713
0.000779565
0.000802508
0.00082494
0.000847149
0.000869336
0.000891639
0.000914167
0.000936981
0.000960126
0.000983639
0.00100754
0.00103185
0.00105656
0.0010817
0.00110727
0.00113327
0.00115969
0.00118656
0.00121386
0.00124159
0.00126977
0.00129838
0.00132743
0.00135692
0.00138683
0.00141718
0.00144795
0.00147913
0.00151074
0.00154274
0.00157514
0.00160792
0.00164108
0.00167458
0.00170842
0.0017426
0.00177708
0.00181186
0.00184693
0.00188227
0.00191788
0.00195373
0.00198984
0.00202618
0.00206276
0.00209957
0.00213661
0.00217385
0.00221129
0.00224892
0.00228672
0.00232467
0.00236274
0.00240097
0.00243934
0.0024779
0.00251671
0.00255584
0.00259535
0.00263525
0.00267555
0.00271622
0.0027572
0.00279844
0.00283987
0.00288148
0.00292321
0.00296504
0.00300693
0.00304884
0.00309072
0.00313255
0.00317428
0.00321589
0.00325735
0.00329863
0.00333968
0.0033805
0.00342105
0.0034613
0.00350124
0.00354085
0.00358006
0.00361888
0.00365723
0.00369533
0.00373286
0.0037699
0.00380644
0.00384247
0.00387794
0.00391284
0.00394715
0.00398084
0.00401388
0.00404625
0.00407793
0.0041089
0.00413913
0.00416859
0.00419724
0.00422507
0.00425205
0.00427814
0.00430331
0.00432753
0.00435075
0.00437295
0.00439408
0.00441406
0.00443285
0.00445038
0.00446656
0.00448132
0.00449458
0.00450638
0.0045168
0.00452609
0.00453426
0.00454134
0.00454726
0.00455189
0.00455516
0.00455704
0.00455754
0.00455665
0.00455443
0.00455089
0.00454608
0.00454002
0.00453274
0.00452427
0.00451456
0.00450354
0.00449118
0.00447747
0.00446245
0.00444634
0.00442929
0.00441127
0.00439225
0.0043722
0.00435123
0.0043294
0.00430679
0.0042834
0.00425944
0.00423507
0.00421038
0.00418546
0.00416032
0.004135
0.00410952
0.0040838
0.00405757
0.0040306
0.00400306
0.00397556
0.00394858
0.00392234
0.00389693
0.00387255
0.00384978
0.00382906
0.00380959
0.00378949
0.00376622
1.36266e-06
0.00010677
0.000238669
0.000351607
0.000445233
0.000522676
0.000586862
0.000640512
0.000685932
0.000725028
0.000759344
0.000790132
0.000818375
0.00084485
0.000870138
0.000894694
0.000918839
0.000942817
0.000966803
0.000990918
0.00101525
0.00103985
0.00106478
0.00109005
0.00111568
0.0011417
0.0011681
0.0011949
0.00122211
0.00124972
0.00127774
0.00130617
0.00133501
0.00136427
0.00139394
0.00142402
0.00145452
0.00148542
0.00151674
0.00154846
0.00158059
0.0016131
0.001646
0.00167928
0.00171293
0.00174693
0.00178127
0.00181594
0.00185093
0.00188622
0.00192179
0.00195765
0.00199378
0.00203016
0.00206679
0.00210367
0.0021408
0.00217816
0.00221578
0.00225363
0.00229172
0.00233006
0.00236863
0.00240744
0.00244648
0.00248574
0.00252523
0.00256496
0.00260495
0.00264521
0.00268578
0.00272669
0.00276793
0.0028095
0.00285139
0.00289355
0.00293594
0.00297852
0.00302124
0.00306409
0.00310702
0.00315001
0.00319301
0.00323599
0.00327892
0.00332177
0.0033645
0.00340708
0.0034495
0.00349171
0.00353371
0.00357547
0.00361696
0.00365816
0.00369905
0.00373959
0.00377976
0.00381947
0.00385896
0.00389791
0.00393638
0.00397436
0.00401184
0.0040488
0.0040852
0.00412103
0.00415627
0.00419088
0.00422484
0.00425814
0.00429074
0.00432262
0.00435376
0.00438412
0.00441367
0.0044424
0.00447026
0.00449724
0.00452326
0.00454834
0.0045724
0.00459543
0.00461733
0.0046381
0.00465766
0.00467594
0.00469291
0.00470849
0.00472272
0.00473563
0.00474728
0.00475769
0.00476682
0.00477468
0.00478118
0.00478632
0.00479003
0.00479231
0.00479317
0.00479259
0.00479063
0.00478727
0.00478256
0.00477651
0.00476911
0.00476036
0.00475021
0.00473866
0.0047257
0.00471144
0.00469597
0.00467938
0.00466169
0.00464286
0.00462295
0.00460202
0.00458009
0.00455726
0.00453359
0.0045092
0.0044842
0.0044587
0.00443281
0.00440656
0.00438003
0.00435327
0.00432626
0.00429895
0.00427121
0.00424311
0.00421492
0.00418701
0.00415964
0.00413298
0.00410735
0.00408312
0.00406062
0.00403951
0.00401869
0.00399638
1.46164e-06
0.000110515
0.000247687
0.000366514
0.000466041
0.00054915
0.000618632
0.00067715
0.000726986
0.000770048
0.000807904
0.000841827
0.000872839
0.00090175
0.000929193
0.000955651
0.000981497
0.001007
0.00103237
0.00105775
0.00108324
0.00110893
0.00113487
0.00116109
0.00118762
0.00121448
0.00124168
0.00126924
0.00129715
0.00132544
0.00135409
0.00138312
0.00141252
0.0014423
0.00147245
0.00150298
0.00153389
0.00156517
0.00159684
0.00162887
0.00166128
0.00169405
0.00172718
0.00176066
0.00179448
0.00182864
0.00186311
0.0018979
0.00193299
0.00196837
0.00200402
0.00203994
0.00207614
0.00211258
0.00214927
0.00218622
0.00222342
0.00226087
0.00229859
0.00233657
0.00237481
0.00241333
0.00245213
0.00249121
0.00253058
0.00257023
0.00261017
0.0026504
0.00269094
0.00273178
0.00277294
0.00281443
0.00285623
0.00289834
0.00294075
0.00298341
0.00302631
0.0030694
0.00311266
0.00315604
0.00319953
0.00324309
0.00328669
0.0033303
0.00337389
0.00341742
0.00346088
0.00350422
0.00354743
0.00359048
0.00363335
0.00367601
0.00371844
0.00376061
0.00380251
0.0038441
0.00388535
0.00392618
0.0039668
0.00400694
0.00404661
0.00408582
0.00412456
0.00416281
0.00420053
0.00423771
0.00427432
0.00431034
0.00434574
0.0043805
0.0044146
0.00444801
0.0044807
0.00451265
0.00454383
0.00457422
0.00460378
0.00463248
0.00466027
0.00468714
0.00471303
0.00473793
0.00476176
0.00478449
0.00480607
0.00482644
0.00484558
0.00486343
0.00488
0.00489527
0.00490926
0.00492193
0.00493326
0.00494321
0.00495176
0.00495889
0.00496459
0.00496882
0.00497157
0.00497285
0.00497265
0.00497098
0.00496786
0.00496329
0.00495725
0.00494975
0.00494077
0.00493031
0.0049184
0.00490509
0.00489047
0.00487457
0.00485742
0.00483905
0.00481948
0.00479878
0.00477696
0.00475415
0.00473036
0.00470572
0.00468032
0.00465426
0.00462764
0.00460054
0.00457304
0.00454521
0.00451708
0.00448868
0.00445998
0.00443106
0.00440205
0.00437321
0.00434478
0.004317
0.00429019
0.00426468
0.00424076
0.00421835
0.00419682
0.00417494
1.53687e-06
0.000113114
0.000254153
0.000377649
0.000482126
0.000570064
0.000644185
0.000707033
0.000760848
0.000807517
0.000848602
0.000885392
0.000918925
0.000950038
0.000979394
0.00100751
0.00103479
0.00106153
0.00108797
0.00111428
0.00114058
0.00116696
0.00119351
0.00122026
0.00124724
0.00127448
0.00130199
0.00132981
0.00135794
0.00138638
0.00141515
0.00144424
0.00147364
0.00150337
0.00153341
0.00156379
0.00159449
0.00162552
0.00165689
0.00168858
0.00172061
0.00175296
0.00178563
0.00181862
0.00185192
0.00188553
0.00191943
0.00195361
0.00198808
0.00202283
0.00205784
0.00209312
0.00212865
0.00216445
0.00220051
0.00223683
0.00227341
0.00231027
0.00234742
0.00238485
0.00242259
0.00246063
0.002499
0.0025377
0.00257673
0.0026161
0.00265582
0.00269588
0.00273629
0.00277706
0.00281817
0.00285962
0.00290142
0.00294354
0.00298597
0.00302868
0.00307165
0.00311485
0.00315825
0.00320183
0.00324555
0.00328939
0.00333331
0.00337729
0.00342129
0.0034653
0.00350928
0.0035532
0.00359703
0.00364075
0.00368434
0.00372777
0.00377101
0.00381403
0.00385682
0.00389934
0.00394156
0.00398339
0.00402504
0.00406625
0.00410703
0.00414738
0.00418729
0.00422673
0.00426569
0.00430413
0.00434203
0.00437938
0.00441614
0.00445229
0.00448781
0.00452268
0.00455687
0.00459036
0.00462311
0.0046551
0.0046863
0.00471669
0.00474621
0.00477485
0.00480257
0.00482933
0.00485507
0.00487977
0.00490337
0.00492583
0.00494713
0.00496721
0.00498607
0.00500368
0.00502001
0.005035
0.00504862
0.0050608
0.00507153
0.00508083
0.00508866
0.005095
0.00509983
0.00510314
0.00510491
0.00510513
0.00510382
0.00510096
0.00509655
0.00509057
0.00508304
0.00507393
0.0050633
0.00505116
0.0050376
0.00502261
0.00500626
0.00498856
0.00496955
0.00494929
0.0049278
0.00490518
0.00488147
0.00485677
0.00483118
0.00480477
0.00477765
0.00474991
0.00472165
0.00469294
0.00466385
0.00463445
0.00460476
0.0045749
0.00454497
0.00451515
0.00448567
0.00445679
0.00442882
0.00440208
0.00437686
0.00435323
0.00433085
0.00430893
1.58912e-06
0.000114696
0.000258314
0.000385315
0.000493737
0.000585672
0.000663721
0.000730297
0.000787573
0.000837399
0.00088132
0.000920619
0.000956343
0.000989342
0.0010203
0.00104976
0.00107815
0.00110579
0.00113294
0.00115981
0.00118652
0.00121318
0.00123988
0.0012667
0.00129365
0.00132078
0.00134811
0.00137566
0.00140344
0.00143146
0.00145975
0.0014883
0.00151713
0.00154619
0.00157549
0.00160504
0.00163486
0.00166495
0.00169533
0.00172598
0.0017569
0.00178811
0.0018196
0.00185136
0.00188339
0.00191569
0.00194827
0.0019811
0.00201421
0.00204758
0.00208121
0.00211511
0.00214928
0.00218372
0.00221845
0.00225346
0.00228877
0.00232439
0.00236034
0.00239662
0.00243326
0.00247026