/*--------------------------------*- C++ -*----------------------------------*\
  =========                 |
  \\      /  F ield         | OpenFOAM: The Open Source CFD Toolbox
   \\    /   O peration     | Website:  https://openfoam.org
    \\  /    A nd           | Version:  7
     \\/     M anipulation  |
\*---------------------------------------------------------------------------*/
FoamFile
{
    version     2.0;
    format      ascii;
    class       volScalarField;
    location    "600";
    object      p;
}
// * * * * * * * * * * * * * * * * * * * * * * * * * * * * * * * * * * * * * //

dimensions      [0 2 -2 0 0 0 0];

internalField   nonuniform List<scalar> 
48900
(
-3.31251
-3.62489
-4.64423
-5.25182
-5.51721
-5.66962
-5.79473
-5.91671
-6.03768
-6.15569
-6.27015
-6.38193
-6.49297
-6.60537
-6.72237
-6.84868
-6.99265
-7.17517
-3.84936
-4.30478
-4.70535
-5.18212
-5.44566
-5.61737
-5.75706
-5.88674
-6.01143
-6.13136
-6.24706
-6.3599
-6.47171
-6.58479
-6.70216
-6.82807
-6.96913
-7.13381
-3.89117
-4.31261
-4.78736
-5.18501
-5.43739
-5.61112
-5.75323
-5.88324
-6.00696
-6.12552
-6.23979
-6.35114
-6.46134
-6.57247
-6.68706
-6.80826
-6.93918
-7.07469
-4.10784
-4.41396
-4.82397
-5.18141
-5.42663
-5.6023
-5.74674
-5.87741
-6.00071
-6.11848
-6.23188
-6.34223
-6.45108
-6.56012
-6.67121
-6.78599
-6.90413
-7.01548
-4.28014
-4.49572
-4.86932
-5.18819
-5.42281
-5.59779
-5.74307
-5.87374
-5.99623
-6.11283
-6.22491
-6.33375
-6.44065
-6.54692
-6.65367
-6.7612
-6.86707
-6.96117
-4.43547
-4.58562
-4.9133
-5.19895
-5.42205
-5.59487
-5.74011
-5.87046
-5.99202
-6.10737
-6.218
-6.32511
-6.42976
-6.53288
-6.6349
-6.73517
-6.83043
-6.91258
-4.57495
-4.67788
-4.95892
-5.21384
-5.42403
-5.59306
-5.7372
-5.86672
-5.98714
-6.10108
-6.21008
-6.31522
-6.41735
-6.51701
-6.61415
-6.70758
-6.7941
-6.8679
-4.70047
-4.77002
-5.00725
-5.23332
-5.42925
-5.59272
-5.73452
-5.8625
-5.98138
-6.09365
-6.20076
-6.30367
-6.40302
-6.49903
-6.59134
-6.67859
-6.75806
-6.82588
-4.81356
-4.85961
-5.05789
-5.25724
-5.43802
-5.59437
-5.73256
-5.85816
-5.97499
-6.08521
-6.19011
-6.29051
-6.38683
-6.4791
-6.56677
-6.64857
-6.72239
-6.78582
-4.91549
-4.94506
-5.10992
-5.28483
-5.45021
-5.59824
-5.73169
-5.85411
-5.96831
-6.07605
-6.17841
-6.27601
-6.36912
-6.45762
-6.54093
-6.61798
-6.68726
-6.74733
-5.00726
-5.02538
-5.16225
-5.31509
-5.46533
-5.60429
-5.73208
-5.85057
-5.9616
-6.06645
-6.16594
-6.26051
-6.35028
-6.43507
-6.51435
-6.58726
-6.65282
-6.71023
-5.0803
-5.09696
-5.21167
-5.34565
-5.48198
-5.61184
-5.73359
-5.84773
-5.95526
-6.057
-6.15349
-6.24498
-6.33151
-6.41286
-6.48857
-6.55803
-6.62062
-6.67592
-5.15035
-5.1575
-5.25543
-5.37408
-5.49844
-5.61992
-5.73578
-5.84556
-5.94958
-6.04823
-6.1418
-6.23039
-6.31396
-6.39228
-6.46499
-6.53166
-6.5919
-6.64554
-5.22075
-5.22052
-5.30283
-5.4062
-5.51795
-5.63003
-5.73897
-5.84348
-5.9432
-6.03811
-6.12819
-6.21342
-6.29366
-6.36871
-6.43829
-6.50213
-6.56005
-6.61203
-5.28838
-5.28356
-5.35192
-5.44077
-5.53981
-5.64184
-5.74299
-5.84136
-5.93602
-6.02651
-6.11257
-6.194
-6.27061
-6.3422
-6.40859
-6.46963
-6.52528
-6.57563
-5.34884
-5.343
-5.39957
-5.47537
-5.56233
-5.65421
-5.74712
-5.83874
-5.92773
-6.01328
-6.09488
-6.17219
-6.24497
-6.31302
-6.37624
-6.43456
-6.48803
-6.53679
-5.39587
-5.39369
-5.44098
-5.50596
-5.58233
-5.66483
-5.74972
-5.83454
-5.91767
-5.99806
-6.07502
-6.14812
-6.21705
-6.28164
-6.34181
-6.39755
-6.44897
-6.4962
-5.41993
-5.42804
-5.46901
-5.52625
-5.59464
-5.66968
-5.74786
-5.82673
-5.90456
-5.98018
-6.05282
-6.12197
-6.18734
-6.24875
-6.30616
-6.35958
-6.40913
-6.45495
-5.40512
-5.43426
-5.4727
-5.52664
-5.59136
-5.66259
-5.737
-5.81218
-5.88643
-5.95861
-6.02796
-6.09403
-6.15655
-6.21539
-6.27054
-6.32206
-6.37004
-6.41465
-5.35408
-5.39824
-5.43984
-5.49735
-5.56524
-5.6388
-5.71456
-5.79018
-5.86414
-5.93549
-6.00365
-6.06834
-6.1294
-6.18682
-6.24064
-6.29098
-6.33797
-6.38177
-5.28256
-5.34049
-5.38957
-5.45564
-5.53147
-5.61146
-5.69192
-5.7707
-5.84658
-5.91893
-5.98746
-6.0521
-6.11286
-6.16985
-6.22319
-6.27305
-6.31961
-6.36304
-5.19314
-5.26506
-5.32641
-5.40586
-5.49362
-5.58298
-5.67017
-5.75349
-5.83224
-5.9063
-5.97576
-6.04082
-6.10169
-6.15859
-6.21175
-6.26139
-6.30772
-6.35095
-5.08842
-5.17599
-5.25541
-5.35304
-5.45614
-5.55683
-5.65175
-5.74001
-5.8218
-5.89763
-5.96808
-6.03363
-6.09471
-6.15164
-6.20473
-6.25425
-6.30044
-6.34353
-4.96993
-5.0761
-5.18084
-5.30117
-5.42239
-5.53538
-5.63806
-5.73092
-5.81531
-5.89256
-5.96375
-6.02967
-6.09088
-6.14781
-6.20084
-6.25024
-6.29631
-6.33929
-4.839
-4.96746
-5.10664
-5.25341
-5.39474
-5.51993
-5.62962
-5.72611
-5.81227
-5.89034
-5.96188
-6.02791
-6.08911
-6.14598
-6.19889
-6.24816
-6.29409
-6.33695
-4.69819
-4.85218
-5.03622
-5.21205
-5.37433
-5.51062
-5.62587
-5.72465
-5.81159
-5.88982
-5.9613
-6.02723
-6.08833
-6.14509
-6.19788
-6.24701
-6.29281
-6.33557
-4.55172
-4.73327
-4.97066
-5.17794
-5.36044
-5.50621
-5.62541
-5.72518
-5.81206
-5.88997
-5.9612
-6.02697
-6.08799
-6.14469
-6.19742
-6.24646
-6.29215
-6.33486
-4.39356
-4.62726
-4.90875
-5.14905
-5.35104
-5.50537
-5.62744
-5.72742
-5.81381
-5.89124
-5.96218
-6.02784
-6.08884
-6.14557
-6.19831
-6.2473
-6.29285
-6.33544
-4.80067
-4.41869
-4.8302
-5.13064
-5.3523
-5.5143
-5.63723
-5.73554
-5.81992
-5.89573
-5.9656
-6.0306
-6.09123
-6.14776
-6.20036
-6.24919
-6.29446
-6.33661
1.87992
-5.22433
-5.00453
-5.2042
-5.38891
-5.53469
-5.64699
-5.73839
-5.81932
-5.89407
-5.96423
-6.03017
-6.09194
-6.14958
-6.20315
-6.25275
-6.2985
-6.34053
-7.47236
-7.47166
-7.47192
-7.47297
-7.47469
-7.47686
-7.4793
-7.48193
-7.48471
-7.4876
-7.49064
-7.49385
-7.49728
-7.50095
-7.5049
-7.50916
-7.51376
-7.51874
-7.52412
-7.52994
-7.53622
-7.54298
-7.55026
-7.55808
-7.56646
-7.57543
-7.585
-7.59519
-7.60602
-7.6175
-7.62965
-7.64247
-7.65596
-7.67013
-7.685
-7.70052
-7.71674
-7.73361
-7.75113
-7.76929
-7.78808
-7.80747
-7.82744
-7.84797
-7.86901
-7.89055
-7.91255
-7.93497
-7.95775
-7.98086
-8.00423
-8.02782
-8.05155
-8.07543
-8.09924
-8.123
-8.14668
-8.17011
-8.1931
-8.21581
-8.23795
-8.25942
-8.28009
-8.2998
-8.31837
-8.33558
-8.35118
-8.36493
-8.37672
-8.38684
-8.39583
-8.40375
-8.41077
-8.41976
-8.427
-8.42091
-8.41201
-8.40762
-8.39165
-8.35522
-8.33001
-8.30863
-8.27431
-8.23297
-8.15702
-8.10127
-8.05998
-8.00379
-7.94084
-7.86543
-7.78585
-7.72419
-7.63556
-7.52217
-7.40829
-7.29275
-7.15877
-7.03345
-6.91673
-6.79844
-6.63512
-6.45187
-6.28035
-6.10498
-5.9226
-5.733
-5.5359
-5.33156
-5.11987
-4.90124
-4.67546
-4.44319
-4.20424
-3.95903
-3.70767
-3.45076
-3.18825
-2.92056
-2.64826
-2.37134
-2.09036
-1.80566
-1.51764
-1.22665
-0.933057
-0.637217
-0.339248
-0.0398328
0.261619
0.566183
0.886004
1.20204
1.46819
1.74495
2.04249
2.35354
2.63477
2.9273
3.20766
3.49522
3.77737
4.04251
4.32374
4.6032
4.86447
5.12528
5.37575
5.62673
5.88698
6.14157
6.38147
6.61704
6.84916
7.07974
7.3125
7.5352
7.75557
7.97383
8.18745
8.39706
8.60488
8.81102
9.01504
9.21721
9.41808
9.61817
9.81671
10.0074
10.1913
10.3678
10.5404
10.714
10.8851
11.0527
11.2145
11.3726
11.4924
11.7026
11.9329
12.1542
-7.47053
-7.47165
-7.47202
-7.47298
-7.47404
-7.47518
-7.47643
-7.47788
-7.47954
-7.48144
-7.4836
-7.48603
-7.48874
-7.49175
-7.49507
-7.49872
-7.50273
-7.50713
-7.51194
-7.51718
-7.5229
-7.52911
-7.53585
-7.54313
-7.55099
-7.55944
-7.56851
-7.57821
-7.58856
-7.59958
-7.61126
-7.62362
-7.63666
-7.6504
-7.66481
-7.67991
-7.69568
-7.71213
-7.72923
-7.74697
-7.76534
-7.78432
-7.80388
-7.82401
-7.84467
-7.86583
-7.88746
-7.9095
-7.93194
-7.9547
-7.97776
-8.00102
-8.02447
-8.04799
-8.07153
-8.09504
-8.11837
-8.14145
-8.16419
-8.18647
-8.20814
-8.2291
-8.24921
-8.26832
-8.28632
-8.30307
-8.31851
-8.33262
-8.34542
-8.35685
-8.36673
-8.37495
-8.38101
-8.38302
-8.37901
-8.37455
-8.36846
-8.35318
-8.33514
-8.32059
-8.29485
-8.25877
-8.22045
-8.18037
-8.15295
-8.10873
-8.0477
-7.98741
-7.92132
-7.85005
-7.77305
-7.67945
-7.5884
-7.49504
-7.39164
-7.28112
-7.16833
-7.0376
-6.89569
-6.74361
-6.60272
-6.45554
-6.29096
-6.11849
-5.93864
-5.75132
-5.55661
-5.35453
-5.14523
-4.92883
-4.70544
-4.47534
-4.23865
-3.99561
-3.74649
-3.4916
-3.23112
-2.96538
-2.69495
-2.41981
-2.14055
-1.85739
-1.57097
-1.28144
-0.989202
-0.694574
-0.397839
-0.0995373
0.19984
0.497271
0.785474
1.08396
1.39876
1.69896
1.99068
2.27777
2.57734
2.86405
3.15562
3.4348
3.71486
3.99802
4.2692
4.53745
4.80781
5.06924
5.32892
5.58437
5.83514
6.08397
6.3301
6.56856
6.80348
7.03582
7.26396
7.4906
7.71198
7.92966
8.14457
8.35572
8.56404
8.77032
8.97447
9.17672
9.37742
9.57683
9.77382
9.9691
10.1539
10.329
10.5032
10.6756
10.8459
11.012
11.1739
11.3257
11.5032
11.6838
11.8864
12.124
-7.4643
-7.46835
-7.46946
-7.47064
-7.47163
-7.47245
-7.47321
-7.47401
-7.47497
-7.47615
-7.4776
-7.47936
-7.48144
-7.48387
-7.48666
-7.48983
-7.49339
-7.49737
-7.50179
-7.50667
-7.51204
-7.51792
-7.52433
-7.53131
-7.53886
-7.54701
-7.55577
-7.56517
-7.57521
-7.58589
-7.59725
-7.60926
-7.62195
-7.63532
-7.64937
-7.66409
-7.67947
-7.69551
-7.7122
-7.72953
-7.74748
-7.76604
-7.78517
-7.80487
-7.8251
-7.84583
-7.86704
-7.88867
-7.91069
-7.93305
-7.9557
-7.97859
-8.00165
-8.02482
-8.04803
-8.07119
-8.09423
-8.11704
-8.13953
-8.16159
-8.18309
-8.20394
-8.22399
-8.24311
-8.2612
-8.27814
-8.29386
-8.30831
-8.32148
-8.33329
-8.34356
-8.35192
-8.35775
-8.36015
-8.35786
-8.35137
-8.34193
-8.32882
-8.31194
-8.29153
-8.2656
-8.2349
-8.20221
-8.16823
-8.133
-8.08986
-8.03718
-7.97783
-7.91238
-7.84005
-7.76213
-7.67711
-7.58618
-7.49042
-7.38931
-7.28246
-7.167
-7.03898
-6.90403
-6.76299
-6.61852
-6.46707
-6.30601
-6.13657
-5.95936
-5.77455
-5.58225
-5.38261
-5.1757
-4.96168
-4.74067
-4.51289
-4.27853
-4.03776
-3.79085
-3.53808
-3.27968
-3.01596
-2.74746
-2.47417
-2.19667
-1.91518
-1.63041
-1.34245
-1.05175
-0.758689
-0.463608
-0.167188
0.130042
0.426726
0.722069
1.02438
1.32903
1.6273
1.92091
2.21264
2.50818
2.79667
3.08527
3.36814
3.64914
3.93246
4.20574
4.47314
4.74169
5.00531
5.26641
5.52602
5.77716
6.0238
6.26965
6.51016
6.74765
6.98173
7.20966
7.43638
7.65924
7.87787
8.09347
8.30575
8.51482
8.72158
8.92605
9.12852
9.32924
9.52836
9.72505
9.92011
10.1055
10.2838
10.4601
10.6328
10.8027
10.9687
11.1304
11.2873
11.4664
11.6505
11.8426
12.056
-7.45538
-7.46186
-7.46463
-7.46676
-7.46831
-7.46944
-7.47029
-7.47104
-7.47182
-7.47275
-7.47389
-7.47533
-7.47708
-7.4792
-7.48169
-7.48459
-7.48791
-7.49167
-7.49589
-7.50059
-7.50579
-7.51152
-7.51778
-7.52461
-7.53202
-7.54001
-7.54862
-7.55785
-7.56772
-7.57823
-7.58938
-7.6012
-7.61367
-7.62681
-7.64061
-7.65507
-7.67019
-7.68595
-7.70236
-7.71939
-7.73704
-7.75529
-7.77412
-7.7935
-7.81342
-7.83384
-7.85474
-7.87607
-7.89779
-7.91986
-7.94225
-7.96487
-7.98768
-8.01061
-8.0336
-8.05657
-8.07944
-8.10209
-8.12447
-8.14644
-8.1679
-8.18875
-8.20887
-8.22811
-8.24635
-8.26349
-8.27941
-8.29404
-8.3073
-8.31906
-8.3292
-8.33735
-8.343
-8.34552
-8.34436
-8.3393
-8.3303
-8.31737
-8.30085
-8.28079
-8.25684
-8.22918
-8.19839
-8.1642
-8.12575
-8.0812
-8.03003
-7.97242
-7.9086
-7.83872
-7.76273
-7.6799
-7.59079
-7.49572
-7.39459
-7.28721
-7.17211
-7.04818
-6.91642
-6.77814
-6.63384
-6.4823
-6.32276
-6.15521
-5.97985
-5.79687
-5.6064
-5.40849
-5.2033
-4.99094
-4.77168
-4.54556
-4.31282
-4.07361
-3.82828
-3.577
-3.32008
-3.05773
-2.79058
-2.51859
-2.24233
-1.96198
-1.67837
-1.39148
-1.10188
-0.809965
-0.516015
-0.220843
0.0750632
0.371069
0.667824
0.968501
1.2703
1.56856
1.86265
2.15508
2.44902
2.73854
3.02593
3.30942
3.5913
3.87315
4.14777
4.41645
4.68409
4.94844
5.21027
5.46993
5.72237
5.96906
6.21399
6.45568
6.69412
6.9286
7.15726
7.38351
7.60677
7.82572
8.04157
8.2545
8.46429
8.67154
8.8763
9.07897
9.27965
9.4782
9.67312
9.86395
10.0492
10.2307
10.4088
10.5825
10.753
10.9199
11.0842
11.2511
11.4323
11.6118
11.7973
11.9918
-7.44586
-7.45376
-7.4584
-7.46183
-7.46432
-7.46612
-7.46746
-7.46853
-7.46951
-7.47053
-7.47171
-7.47312
-7.47483
-7.47688
-7.47931
-7.48214
-7.48541
-7.48912
-7.4933
-7.49797
-7.50315
-7.50885
-7.5151
-7.5219
-7.52927
-7.53724
-7.5458
-7.55497
-7.56477
-7.5752
-7.58626
-7.59797
-7.61032
-7.62333
-7.63698
-7.65128
-7.66624
-7.68182
-7.69804
-7.71489
-7.73234
-7.7504
-7.76902
-7.78821
-7.80793
-7.82815
-7.84886
-7.87001
-7.89154
-7.91346
-7.93567
-7.95814
-7.98081
-8.00362
-8.02651
-8.0494
-8.07217
-8.09481
-8.11716
-8.13915
-8.16067
-8.18158
-8.20181
-8.22122
-8.23968
-8.25704
-8.27321
-8.28804
-8.30142
-8.31318
-8.32308
-8.33086
-8.3362
-8.33864
-8.33783
-8.33343
-8.32539
-8.31368
-8.29839
-8.27957
-8.25715
-8.23096
-8.2008
-8.16632
-8.12698
-8.08204
-8.03117
-7.97435
-7.91157
-7.84293
-7.76826
-7.68703
-7.59922
-7.50493
-7.40429
-7.29704
-7.18265
-7.06067
-6.93107
-6.79417
-6.65027
-6.49919
-6.34056
-6.17415
-6.00003
-5.81829
-5.62906
-5.4324
-5.22845
-5.01725
-4.79909
-4.57414
-4.34249
-4.10437
-3.86003
-3.60975
-3.35381
-3.09242
-2.82613
-2.55496
-2.27954
-1.99999
-1.71712
-1.43104
-1.14226
-0.851088
-0.557953
-0.263537
0.0319344
0.327927
0.62528
0.924982
1.22498
1.52264
1.81731
2.11037
2.40309
2.69289
2.98021
3.2643
3.54635
3.82687
4.10209
4.37211
4.63965
4.90424
5.16616
5.42519
5.67812
5.9257
6.17049
6.41231
6.65084
6.88523
7.11452
7.34067
7.56375
7.78281
7.99876
8.21184
8.42194
8.62935
8.83415
9.03677
9.23711
9.43485
9.62844
9.81732
10.0025
10.185
10.3639
10.5384
10.7097
10.8779
11.0446
11.2158
11.3975
11.5753
11.7533
11.9353
-7.43735
-7.44571
-7.45204
-7.45678
-7.46033
-7.46297
-7.46497
-7.46657
-7.46797
-7.46933
-7.47076
-7.47237
-7.47424
-7.47642
-7.47895
-7.48188
-7.48523
-7.48903
-7.49329
-7.49804
-7.50329
-7.50907
-7.51537
-7.52223
-7.52966
-7.53766
-7.54625
-7.55544
-7.56524
-7.57566
-7.58671
-7.59838
-7.6107
-7.62365
-7.63724
-7.65147
-7.66633
-7.68184
-7.69797
-7.71471
-7.73207
-7.75002
-7.76854
-7.78764
-7.80726
-7.82738
-7.848
-7.86907
-7.89054
-7.91238
-7.93453
-7.95696
-7.97961
-8.00241
-8.02528
-8.04817
-8.07098
-8.09366
-8.11609
-8.13816
-8.1598
-8.18084
-8.20125
-8.22083
-8.23947
-8.25705
-8.27342
-8.28844
-8.30194
-8.31371
-8.32356
-8.33119
-8.33633
-8.33869
-8.338
-8.33409
-8.32683
-8.3161
-8.30195
-8.28423
-8.26276
-8.23739
-8.20774
-8.17342
-8.13403
-8.08916
-8.03861
-7.98231
-7.92015
-7.85215
-7.77812
-7.69776
-7.61083
-7.51735
-7.41728
-7.3104
-7.1966
-7.07557
-6.94692
-6.81104
-6.66768
-6.51712
-6.359
-6.19325
-6.01988
-5.83898
-5.65053
-5.45467
-5.25145
-5.04101
-4.82361
-4.59931
-4.3683
-4.13087
-3.88717
-3.63751
-3.38207
-3.12122
-2.85553
-2.58484
-2.3099
-2.03079
-1.7484
-1.46278
-1.17449
-0.883808
-0.591156
-0.297095
-0.00170111
0.29455
0.592032
0.890878
1.18979
1.48702
1.78216
2.07562
2.36776
2.65759
2.94489
3.2293
3.51138
3.79104
4.06637
4.33728
4.60507
4.86973
5.13135
5.38962
5.64269
5.89107
6.13592
6.37756
6.61575
6.8498
7.07942
7.30547
7.52829
7.74728
7.96315
8.1761
8.38612
8.59345
8.79814
9.00051
9.20027
9.39725
9.59015
9.77854
9.96359
10.146
10.325
10.5002
10.6722
10.8416
11.0102
11.1827
11.362
11.5381
11.7112
11.8858
-7.43088
-7.43898
-7.44663
-7.45251
-7.45704
-7.46052
-7.46323
-7.46545
-7.46737
-7.46916
-7.47098
-7.47291
-7.47506
-7.47749
-7.48025
-7.48338
-7.48691
-7.49088
-7.4953
-7.5002
-7.50559
-7.5115
-7.51792
-7.52489
-7.53242
-7.54051
-7.54918
-7.55844
-7.5683
-7.57876
-7.58984
-7.60155
-7.61387
-7.62683
-7.64042
-7.65465
-7.66949
-7.68498
-7.7011
-7.71782
-7.73516
-7.75308
-7.77159
-7.79067
-7.81027
-7.8304
-7.85101
-7.87209
-7.89359
-7.91546
-7.93765
-7.96013
-7.98282
-8.0057
-8.02866
-8.05164
-8.07456
-8.09735
-8.1199
-8.14213
-8.1639
-8.18513
-8.20571
-8.22548
-8.24434
-8.26211
-8.27867
-8.29388
-8.30751
-8.31934
-8.32922
-8.33688
-8.34209
-8.34459
-8.34414
-8.34062
-8.33391
-8.32392
-8.3105
-8.29346
-8.27265
-8.24777
-8.21839
-8.18438
-8.14517
-8.10055
-8.05037
-7.99446
-7.93277
-7.86518
-7.79156
-7.71166
-7.62525
-7.53224
-7.43263
-7.32609
-7.21261
-7.09199
-6.96398
-6.82856
-6.68564
-6.53536
-6.37759
-6.21219
-6.03925
-5.8588
-5.67075
-5.47525
-5.27248
-5.06251
-4.84545
-4.62151
-4.39082
-4.15372
-3.91039
-3.66101
-3.40586
-3.14527
-2.87973
-2.60933
-2.33457
-2.05573
-1.77353
-1.48822
-1.20006
-0.909656
-0.617226
-0.323211
-0.0277075
0.268743
0.566249
0.86464
1.1627
1.4598
1.75508
2.04871
2.34066
2.63052
2.91783
3.20227
3.48423
3.76328
4.03866
4.30997
4.57781
4.84244
5.10365
5.36128
5.6143
5.86302
6.10791
6.34926
6.587
6.82071
7.05023
7.27598
7.49838
7.71714
7.93282
8.14544
8.35517
8.5622
8.76661
8.9685
9.16778
9.36408
9.55655
9.74478
9.92966
10.1118
10.2908
10.4663
10.6389
10.8092
10.9788
11.1514
11.328
11.5017
11.671
11.8407
-7.42705
-7.43435
-7.44289
-7.44964
-7.45497
-7.45918
-7.46256
-7.46537
-7.46782
-7.47009
-7.47233
-7.47465
-7.47714
-7.47987
-7.48291
-7.48629
-7.49006
-7.49424
-7.49887
-7.50396
-7.50952
-7.51559
-7.52218
-7.52929
-7.53695
-7.54516
-7.55394
-7.5633
-7.57325
-7.5838
-7.59496
-7.60672
-7.6191
-7.63212
-7.64576
-7.66003
-7.67492
-7.69044
-7.7066
-7.72336
-7.74074
-7.75872
-7.77728
-7.7964
-7.81608
-7.83629
-7.85697
-7.87813
-7.89973
-7.92168
-7.94399
-7.9666
-7.98944
-8.01242
-8.03554
-8.05868
-8.08178
-8.10473
-8.12747
-8.14986
-8.17185
-8.19329
-8.21405
-8.23407
-8.25311
-8.27108
-8.28786
-8.3032
-8.31696
-8.32896
-8.33895
-8.34673
-8.3521
-8.35482
-8.35469
-8.35156
-8.34535
-8.33581
-8.3228
-8.30616
-8.28572
-8.26101
-8.23195
-8.198
-8.15905
-8.11478
-8.06492
-8.00941
-7.94809
-7.88072
-7.80722
-7.72762
-7.64151
-7.54878
-7.44935
-7.34305
-7.22978
-7.10922
-6.98146
-6.84629
-6.7036
-6.55346
-6.39572
-6.23043
-6.05766
-5.87734
-5.68948
-5.4942
-5.29151
-5.08166
-4.86478
-4.64093
-4.4104
-4.17337
-3.93004
-3.68071
-3.42559
-3.16505
-2.89956
-2.62915
-2.35441
-2.0756
-1.79345
-1.50811
-1.21997
-0.929596
-0.637114
-0.343061
-0.0474494
0.24916
0.546682
0.844696
1.14254
1.43942
1.73474
2.02834
2.32019
2.60999
2.89722
3.18162
3.46329
3.74199
4.01723
4.28859
4.55635
4.82077
5.0815
5.33861
5.59145
5.84028
6.0849
6.32588
6.56312
6.79626
7.02556
7.25088
7.47276
7.69117
7.90648
8.11865
8.32799
8.53459
8.73849
8.93988
9.13853
9.33419
9.52623
9.71439
9.89922
10.0811
10.2599
10.4357
10.6086
10.7796
10.9499
11.122
11.2959
11.467
11.6331
11.7988
-7.42603
-7.4322
-7.44122
-7.44854
-7.45445
-7.45923
-7.46315
-7.46647
-7.4694
-7.47212
-7.47477
-7.47746
-7.48029
-7.48334
-7.48667
-7.49032
-7.49434
-7.49875
-7.50359
-7.50887
-7.51463
-7.52088
-7.52763
-7.5349
-7.5427
-7.55104
-7.55996
-7.56944
-7.57951
-7.59017
-7.60142
-7.61329
-7.62577
-7.63886
-7.6526
-7.66695
-7.68193
-7.69755
-7.71379
-7.73065
-7.74813
-7.7662
-7.78488
-7.80413
-7.82392
-7.84426
-7.8651
-7.88639
-7.90813
-7.93026
-7.95275
-7.97552
-7.99855
-8.02174
-8.04506
-8.06842
-8.09172
-8.11488
-8.13782
-8.16046
-8.18267
-8.20432
-8.22534
-8.24549
-8.26477
-8.28297
-8.29991
-8.31547
-8.3294
-8.34153
-8.3517
-8.35964
-8.36519
-8.36812
-8.36828
-8.36543
-8.35955
-8.35032
-8.33766
-8.32125
-8.30088
-8.27635
-8.24736
-8.21354
-8.17471
-8.13066
-8.08109
-8.02587
-7.96466
-7.89751
-7.82414
-7.74454
-7.65857
-7.56592
-7.46655
-7.36031
-7.24708
-7.12646
-6.99863
-6.86344
-6.72073
-6.57052
-6.41285
-6.24748
-6.07465
-5.89429
-5.7064
-5.51099
-5.3083
-5.09843
-4.88143
-4.65762
-4.42695
-4.18973
-3.94632
-3.69687
-3.44167
-3.18097
-2.91528
-2.64476
-2.3699
-2.09091
-1.8087
-1.52324
-1.23486
-0.944346
-0.651702
-0.357502
-0.0618621
0.234935
0.532527
0.830404
1.12791
1.42461
1.71985
2.01346
2.30524
2.59487
2.88185
3.16628
3.44762
3.72583
4.00085
4.272
4.53958
4.80367
5.06397
5.32061
5.5731
5.82157
6.06593
6.30637
6.54298
6.77556
7.00422
7.22911
7.4505
7.66837
7.88314
8.0948
8.30353
8.50969
8.71301
8.91375
9.11182
9.30686
9.49851
9.68641
9.87115
10.0529
10.2316
10.4074
10.5807
10.7521
10.9227
11.094
11.2657
11.4344
11.5974
11.7598
-7.42775
-7.43259
-7.44173
-7.4493
-7.45555
-7.46071
-7.46503
-7.46875
-7.47207
-7.47516
-7.47816
-7.48119
-7.48434
-7.48768
-7.49127
-7.49517
-7.49942
-7.50405
-7.50909
-7.51458
-7.52051
-7.52693
-7.53384
-7.54127
-7.54922
-7.55771
-7.56676
-7.57637
-7.58656
-7.59735
-7.60873
-7.62071
-7.63331
-7.64653
-7.66038
-7.67486
-7.68997
-7.70572
-7.72209
-7.73908
-7.7567
-7.77494
-7.79376
-7.81317
-7.83315
-7.85366
-7.87467
-7.89616
-7.91812
-7.94047
-7.96316
-7.98615
-8.00941
-8.03286
-8.05639
-8.07997
-8.10355
-8.12695
-8.15013
-8.17299
-8.19543
-8.21729
-8.23854
-8.25899
-8.27846
-8.29683
-8.31395
-8.32965
-8.34375
-8.35603
-8.36638
-8.37448
-8.38017
-8.38329
-8.38366
-8.3811
-8.37537
-8.36635
-8.35381
-8.3375
-8.31714
-8.29263
-8.26362
-8.22986
-8.19106
-8.14708
-8.09764
-8.04253
-7.98147
-7.91433
-7.8409
-7.76137
-7.67529
-7.58257
-7.48311
-7.37677
-7.26339
-7.14257
-7.01456
-6.87915
-6.73632
-6.58606
-6.42815
-6.26258
-6.0895
-5.90883
-5.72077
-5.52532
-5.32238
-5.11217
-4.89498
-4.67089
-4.44002
-4.20266
-3.95902
-3.70923
-3.45383
-3.19284
-2.92695
-2.65612
-2.38107
-2.10186
-1.81941
-1.53361
-1.24515
-0.954426
-0.661598
-0.367205
-0.0712835
0.225598
0.523267
0.820933
1.11825
1.41475
1.70997
2.00355
2.2951
2.58457
2.87132
3.15543
3.43645
3.71436
3.98879
4.25967
4.52689
4.79045
5.0502
5.30629
5.55826
5.80613
6.04984
6.28983
6.52572
6.75769
6.98566
7.20998
7.43087
7.64799
7.86209
8.07319
8.28128
8.48677
8.68949
8.88967
9.08708
9.28156
9.47271
9.66046
9.84503
10.0265
10.2052
10.3811
10.5545
10.7261
10.8967
11.0673
11.2371
11.4033
11.5636
11.7233
-7.43193
-7.43538
-7.44431
-7.45187
-7.45823
-7.46357
-7.46813
-7.47211
-7.4757
-7.47907
-7.48235
-7.48565
-7.48904
-7.49262
-7.49644
-7.50056
-7.50501
-7.50983
-7.51505
-7.5207
-7.5268
-7.53338
-7.54044
-7.54802
-7.55611
-7.56474
-7.57392
-7.58367
-7.594
-7.60492
-7.61643
-7.62855
-7.64129
-7.65465
-7.66865
-7.68327
-7.69854
-7.71444
-7.73099
-7.74816
-7.76596
-7.78436
-7.8034
-7.82302
-7.84319
-7.86391
-7.88514
-7.90688
-7.92906
-7.95164
-7.97458
-7.99784
-8.02134
-8.04504
-8.06883
-8.09267
-8.11652
-8.14013
-8.16359
-8.18669
-8.20933
-8.23142
-8.25289
-8.27349
-8.29315
-8.31171
-8.32896
-8.34481
-8.35903
-8.37143
-8.3819
-8.39009
-8.39589
-8.39917
-8.39968
-8.39718
-8.39155
-8.38259
-8.37007
-8.35369
-8.33334
-8.30875
-8.27959
-8.24579
-8.20686
-8.16286
-8.11331
-8.05817
-7.99704
-7.92974
-7.8563
-7.77661
-7.69044
-7.59764
-7.49782
-7.39119
-7.27761
-7.1566
-7.02829
-6.89257
-6.74945
-6.59885
-6.44064
-6.27473
-6.10143
-5.92044
-5.73205
-5.53628
-5.3331
-5.1226
-4.90512
-4.68062
-4.44939
-4.21176
-3.96775
-3.71771
-3.46185
-3.20065
-2.93444
-2.66329
-2.38799
-2.10843
-1.82564
-1.53968
-1.25094
-0.959958
-0.666918
-0.372367
-0.0762272
0.220655
0.518304
0.81588
1.11306
1.40943
1.70445
1.99776
2.28914
2.5783
2.8648
3.14846
3.42914
3.70647
3.98052
4.25085
4.51761
4.78053
5.03969
5.29508
5.54633
5.79364
6.0367
6.27586
6.51111
6.74219
6.96939
7.19284
7.413
7.62939
7.84293
8.05328
8.26058
8.46545
8.66753
8.86704
9.06383
9.25773
9.44848
9.63594
9.82033
10.0017
10.1802
10.3561
10.5297
10.7013
10.8718
11.0415
11.2096
11.3737
11.5315
11.6886
-7.43816
-7.44027
-7.44872
-7.45603
-7.46228
-7.46762
-7.47225
-7.47636
-7.48011
-7.48365
-7.48711
-7.49059
-7.49417
-7.49793
-7.50192
-7.5062
-7.51081
-7.51578
-7.52114
-7.52694
-7.53318
-7.53989
-7.54708
-7.55478
-7.56301
-7.57177
-7.5811
-7.59098
-7.60145
-7.6125
-7.62416
-7.63643
-7.64932
-7.66284
-7.67699
-7.69179
-7.70723
-7.72331
-7.74004
-7.7574
-7.77541
-7.79405
-7.81328
-7.83312
-7.85352
-7.87449
-7.89597
-7.91795
-7.94037
-7.96322
-7.9864
-8.00993
-8.03367
-8.0576
-8.08166
-8.10575
-8.12975
-8.15368
-8.17733
-8.20065
-8.22349
-8.24581
-8.26738
-8.28814
-8.30786
-8.32654
-8.34389
-8.35983
-8.37408
-8.38658
-8.39701
-8.40522
-8.41105
-8.41431
-8.41485
-8.41227
-8.40662
-8.39756
-8.38485
-8.36844
-8.34792
-8.32312
-8.29383
-8.25969
-8.22064
-8.17647
-8.12672
-8.07137
-8.01007
-7.94259
-7.86887
-7.78894
-7.7026
-7.60947
-7.50943
-7.40256
-7.28852
-7.16713
-7.03845
-6.90245
-6.75899
-6.608
-6.44939
-6.28309
-6.10943
-5.92817
-5.73932
-5.54316
-5.33948
-5.12863
-4.91079
-4.68596
-4.4544
-4.21645
-3.97207
-3.72165
-3.4654
-3.20368
-2.93723
-2.66582
-2.39016
-2.11037
-1.82739
-1.54116
-1.25204
-0.960839
-0.667761
-0.372972
-0.0766407
0.22023
0.517798
0.815409
1.11235
1.40843
1.70319
1.99617
2.28719
2.57589
2.86216
3.14518
3.42531
3.70211
3.97554
4.24524
4.51125
4.77358
5.03193
5.28647
5.53701
5.78357
6.02577
6.26409
6.49842
6.72864
6.95518
7.17774
7.39686
7.61265
7.82528
8.03481
8.2414
8.4454
8.64684
8.84567
9.04177
9.23508
9.42537
9.6125
9.79672
9.97793
10.1564
10.3322
10.5058
10.6775
10.8477
11.0166
11.1831
11.3453
11.5008
11.6556
-7.446
-7.44686
-7.45463
-7.46149
-7.46745
-7.47263
-7.47718
-7.48128
-7.48506
-7.48867
-7.49221
-7.49578
-7.49946
-7.50333
-7.50743
-7.51182
-7.51653
-7.52161
-7.52709
-7.53299
-7.53934
-7.54615
-7.55346
-7.56128
-7.56962
-7.57851
-7.58795
-7.59797
-7.60857
-7.61976
-7.63156
-7.64398
-7.65704
-7.67073
-7.68505
-7.70002
-7.71566
-7.73193
-7.74886
-7.76643
-7.78467
-7.8035
-7.82295
-7.84302
-7.86367
-7.88487
-7.9066
-7.92881
-7.95148
-7.97455
-7.99797
-8.0217
-8.04566
-8.06979
-8.09406
-8.11834
-8.1425
-8.16657
-8.19036
-8.21384
-8.23678
-8.25918
-8.28081
-8.30159
-8.32139
-8.34004
-8.35735
-8.37321
-8.38743
-8.39976
-8.41016
-8.41833
-8.42404
-8.42722
-8.42747
-8.42483
-8.41904
-8.40974
-8.3968
-8.38009
-8.35926
-8.33414
-8.3045
-8.27003
-8.23069
-8.1862
-8.13616
-8.08057
-8.01883
-7.9512
-7.8773
-7.79706
-7.71031
-7.61683
-7.51651
-7.40918
-7.29474
-7.17293
-7.04384
-6.90754
-6.76357
-6.61218
-6.45324
-6.28653
-6.11241
-5.93073
-5.74163
-5.54501
-5.34089
-5.12973
-4.91159
-4.68637
-4.45443
-4.21592
-3.97126
-3.72051
-3.46401
-3.20213
-2.93528
-2.66359
-2.38762
-2.10757
-1.82421
-1.53773
-1.24862
-0.957219
-0.663767
-0.368819
-0.0726006
0.224236
0.521646
0.819023
1.11579
1.41142
1.70591
1.99859
2.28905
2.57732
2.8629
3.14539
3.42491
3.70103
3.97362
4.24256
4.50773
4.76923
5.02673
5.28027
5.52998
5.77564
6.01699
6.25423
6.4875
6.71687
6.9424
7.16402
7.38221
7.597
7.80884
8.01759
8.22351
8.42667
8.6273
8.82537
9.02069
9.21342
9.40329
9.59002
9.77404
9.95511
10.1335
10.3094
10.4828
10.6544
10.8243
10.9923
11.1575
11.3179
11.4714
11.624
-7.45498
-7.45474
-7.46169
-7.46794
-7.47347
-7.47833
-7.48267
-7.48662
-7.49031
-7.49387
-7.49739
-7.50097
-7.50467
-7.50856
-7.5127
-7.51714
-7.52191
-7.52705
-7.5326
-7.53857
-7.545
-7.55191
-7.55931
-7.56722
-7.57567
-7.58467
-7.59423
-7.60436
-7.61508
-7.62642
-7.63836
-7.65093
-7.66413
-7.67799
-7.69249
-7.70763
-7.72344
-7.7399
-7.75702
-7.77479
-7.79319
-7.81225
-7.83193
-7.85219
-7.87303
-7.89441
-7.91634
-7.93873
-7.96155
-7.9848
-8.00841
-8.03225
-8.05637
-8.08061
-8.10497
-8.1293
-8.15354
-8.17762
-8.20144
-8.22486
-8.24777
-8.27016
-8.29171
-8.3124
-8.33203
-8.35054
-8.3677
-8.38333
-8.39737
-8.40947
-8.41957
-8.42744
-8.4329
-8.43581
-8.43585
-8.43284
-8.42667
-8.41707
-8.40371
-8.38663
-8.3654
-8.33983
-8.30982
-8.27496
-8.23518
-8.19029
-8.13987
-8.08389
-8.0219
-7.95382
-7.87957
-7.79902
-7.71193
-7.61807
-7.51737
-7.40965
-7.29481
-7.17269
-7.04322
-6.90637
-6.76199
-6.61032
-6.45094
-6.28383
-6.10935
-5.9275
-5.73785
-5.54092
-5.33646
-5.12503
-4.90635
-4.68091
-4.44879
-4.20998
-3.96481
-3.71375
-3.45708
-3.19478
-2.92775
-2.65581
-2.37971
-2.09948
-1.81596
-1.52957
-1.24008
-0.948637
-0.654995
-0.360057
-0.064189
0.232503
0.529725
0.826873
1.12318
1.41853
1.71252
2.00459
2.29447
2.58213
2.86693
3.14881
3.42746
3.70286
3.97455
4.24265
4.50694
4.76734
5.0239
5.27659
5.52495
5.76963
6.00981
6.24596
6.47828
6.70645
6.93084
7.15157
7.36882
7.58269
7.79362
8.00142
8.20651
8.40893
8.60863
8.806
9.00072
9.19272
9.38205
9.56857
9.75229
9.93322
10.1116
10.2873
10.4607
10.632
10.8015
10.9687
11.1326
11.2913
11.443
11.5938
-7.46467
-7.46349
-7.46953
-7.47508
-7.48005
-7.48448
-7.48847
-7.49216
-7.49564
-7.49903
-7.50243
-7.50591
-7.50954
-7.51339
-7.51751
-7.52193
-7.52671
-7.53187
-7.53745
-7.54347
-7.54994
-7.55691
-7.56437
-7.57236
-7.58089
-7.58998
-7.59964
-7.60988
-7.62072
-7.63217
-7.64424
-7.65694
-7.67028
-7.68426
-7.6989
-7.71419
-7.73014
-7.74674
-7.76401
-7.78192
-7.80047
-7.81965
-7.83944
-7.85982
-7.88077
-7.90226
-7.92426
-7.94673
-7.96962
-7.99289
-8.01648
-8.04034
-8.06439
-8.08859
-8.11284
-8.13706
-8.1612
-8.18514
-8.20875
-8.23194
-8.25465
-8.27673
-8.29797
-8.31837
-8.3377
-8.35586
-8.37265
-8.38795
-8.40153
-8.41329
-8.42296
-8.4304
-8.43545
-8.43785
-8.43746
-8.43403
-8.4274
-8.41726
-8.40355
-8.38598
-8.36425
-8.33827
-8.30773
-8.27248
-8.2322
-8.18682
-8.13597
-8.07954
-8.01714
-7.94874
-7.87416
-7.79314
-7.70564
-7.61156
-7.51053
-7.40246
-7.28727
-7.16477
-7.03493
-6.89768
-6.75314
-6.60117
-6.44158
-6.27407
-6.0993
-5.91698
-5.72727
-5.5301
-5.32526
-5.11366
-4.89468
-4.6689
-4.43665
-4.19754
-3.95222
-3.70103
-3.4442
-3.18191
-2.91479
-2.64258
-2.36632
-2.08598
-1.80244
-1.51583
-1.22654
-0.935038
-0.641597
-0.34681
-0.0510118
0.245552
0.542386
0.838801
1.13471
1.42942
1.72276
2.01415
2.30337
2.5903
2.87428
3.15526
3.43296
3.70733
3.97804
4.24503
4.50848
4.76769
5.02306
5.27467
5.52186
5.7652
6.00419
6.23922
6.47033
6.6974
6.92056
7.14035
7.35654
7.56953
7.77933
7.98632
8.19044
8.39201
8.59102
8.78769
8.98153
9.17297
9.36187
9.54804
9.73152
9.91227
10.0904
10.2661
10.4394
10.6104
10.7794
10.9458
11.1085
11.2657
11.4157
11.5646
-7.4752
-7.47292
-7.47802
-7.48278
-7.48709
-7.49096
-7.49449
-7.49778
-7.50092
-7.50403
-7.50719
-7.51047
-7.51395
-7.51767
-7.52169
-7.52605
-7.53078
-7.53591
-7.54147
-7.54749
-7.55398
-7.56097
-7.56848
-7.57651
-7.58509
-7.59424
-7.60396
-7.61427
-7.62518
-7.63671
-7.64885
-7.66162
-7.67503
-7.68908
-7.70378
-7.71913
-7.73513
-7.75177
-7.76906
-7.78698
-7.80553
-7.82469
-7.84445
-7.86478
-7.88565
-7.90704
-7.92892
-7.95124
-7.97395
-7.99702
-8.02038
-8.04397
-8.06774
-8.09161
-8.11551
-8.13937
-8.16308
-8.18657
-8.20974
-8.23248
-8.25469
-8.27623
-8.297
-8.31685
-8.33565
-8.35323
-8.36948
-8.38419
-8.39721
-8.40838
-8.41749
-8.42438
-8.42884
-8.43069
-8.42972
-8.42574
-8.41853
-8.40789
-8.39361
-8.37546
-8.35324
-8.32673
-8.29572
-8.25997
-8.21927
-8.17341
-8.12213
-8.06527
-8.00258
-7.93388
-7.85897
-7.77772
-7.68993
-7.59542
-7.49411
-7.38579
-7.27033
-7.14761
-7.01756
-6.8802
-6.73539
-6.58307
-6.4232
-6.25575
-6.08076
-5.89825
-5.70831
-5.51091
-5.30617
-5.0943
-4.87533
-4.64951
-4.41698
-4.17797
-3.9327
-3.68148
-3.42456
-3.1622
-2.89507
-2.62308
-2.34692
-2.06673
-1.78328
-1.4968
-1.20765
-0.916419