/*--------------------------------*- C++ -*----------------------------------*\
  =========                 |
  \\      /  F ield         | OpenFOAM: The Open Source CFD Toolbox
   \\    /   O peration     | Website:  https://openfoam.org
    \\  /    A nd           | Version:  7
     \\/     M anipulation  |
\*---------------------------------------------------------------------------*/
FoamFile
{
    version     2.0;
    format      ascii;
    class       surfaceScalarField;
    location    "600";
    object      phi;
}
// * * * * * * * * * * * * * * * * * * * * * * * * * * * * * * * * * * * * * //

dimensions      [0 3 -1 0 0 0 0];

internalField   nonuniform List<scalar> 
97240
(
-6.49625e-08
2.61586e-08
1.63284e-06
-1.43915e-06
1.36168e-06
7.75064e-08
-1.28664e-06
1.21934e-06
6.73157e-08
-1.16114e-06
1.11566e-06
4.54927e-08
-1.0795e-06
1.05172e-06
2.77926e-08
-1.02887e-06
1.01009e-06
1.87892e-08
-9.93371e-07
9.78613e-07
1.47637e-08
-9.64776e-07
9.5218e-07
1.26005e-08
-9.40198e-07
9.29244e-07
1.09575e-08
-9.18837e-07
9.09359e-07
9.48022e-09
-9.00398e-07
8.92268e-07
8.13154e-09
-8.84599e-07
8.77657e-07
6.94303e-09
-8.71132e-07
8.65247e-07
5.88586e-09
-8.59737e-07
8.54794e-07
4.94424e-09
-8.50201e-07
8.46127e-07
4.07493e-09
-8.42409e-07
8.39209e-07
3.20045e-09
-8.36438e-07
8.34295e-07
2.14429e-09
-8.32877e-07
8.32329e-07
5.54671e-10
-2.06248e-08
1.96126e-08
1.70962e-06
-1.72712e-06
1.73403e-06
-8.86322e-08
8.17389e-08
-1.7382e-06
1.73854e-06
-9.01403e-08
8.9801e-08
-1.73463e-06
1.72698e-06
-7.48126e-08
8.24647e-08
-1.71592e-06
1.70267e-06
-5.7313e-08
7.05589e-08
-1.68748e-06
1.67165e-06
-4.48188e-08
6.06582e-08
-1.65505e-06
1.63874e-06
-3.66959e-08
5.30012e-08
-1.62233e-06
1.60665e-06
-3.10888e-08
4.67714e-08
-1.59116e-06
1.57655e-06
-2.67593e-08
4.13767e-08
-1.56223e-06
1.54881e-06
-2.31522e-08
3.65789e-08
-1.53571e-06
1.52347e-06
-2.00487e-08
3.22895e-08
-1.51157e-06
1.50048e-06
-1.73579e-08
2.84523e-08
-1.48972e-06
1.47971e-06
-1.4993e-08
2.50006e-08
-1.47003e-06
1.46106e-06
-1.28851e-08
2.18586e-08
-1.45242e-06
1.44444e-06
-1.09496e-08
1.89258e-08
-1.4368e-06
1.42982e-06
-9.0582e-09
1.60419e-08
-1.42322e-06
1.41729e-06
-6.94689e-09
1.28781e-08
-1.41185e-06
1.40712e-06
-3.65908e-09
8.39648e-09
-1.81726e-08
1.66444e-08
1.83287e-06
-1.83967e-06
1.84509e-06
-7.53179e-08
6.98726e-08
-1.85006e-06
1.85453e-06
-8.5502e-08
8.10129e-08
-1.85814e-06
1.8606e-06
-8.19156e-08
7.94477e-08
-1.8621e-06
1.86272e-06
-7.31673e-08
7.2533e-08
-1.86264e-06
1.86197e-06
-6.55814e-08
6.62436e-08
-1.86078e-06
1.85917e-06
-5.9525e-08
6.11283e-08
-1.85712e-06
1.85474e-06
-5.43651e-08
5.67458e-08
-1.85195e-06
1.84888e-06
-4.96119e-08
5.26742e-08
-1.84545e-06
1.8418e-06
-4.51085e-08
4.87566e-08
-1.83782e-06
1.8337e-06
-4.08425e-08
4.49644e-08
-1.82929e-06
1.82482e-06
-3.68214e-08
4.12952e-08
-1.82012e-06
1.81542e-06
-3.30331e-08
3.77324e-08
-1.81056e-06
1.80576e-06
-2.94404e-08
3.42393e-08
-1.80086e-06
1.79609e-06
-2.59654e-08
3.0738e-08
-1.79128e-06
1.78666e-06
-2.24504e-08
2.70686e-08
-1.78208e-06
1.77773e-06
-1.85526e-08
2.28983e-08
-1.77345e-06
1.76929e-06
-1.33725e-08
1.75235e-08
-1.5135e-08
1.38548e-08
1.964e-06
-1.96903e-06
1.97359e-06
-6.51637e-08
6.05915e-08
-1.97779e-06
1.9817e-06
-7.70004e-08
7.30774e-08
-1.98524e-06
1.98811e-06
-7.67267e-08
7.38547e-08
-1.99045e-06
1.99229e-06
-7.10518e-08
6.92126e-08
-1.99379e-06
1.99499e-06
-6.55611e-08
6.43554e-08
-1.99601e-06
1.99683e-06
-6.09585e-08
6.01276e-08
-1.99754e-06
1.99812e-06
-5.69644e-08
5.63868e-08
-1.99859e-06
1.99896e-06
-5.3238e-08
5.28671e-08
-1.99924e-06
1.99943e-06
-4.9643e-08
4.94568e-08
-1.99953e-06
1.99955e-06
-4.61484e-08
4.61287e-08
-1.99949e-06
1.99937e-06
-4.27439e-08
4.28714e-08
-1.99917e-06
1.99891e-06
-3.94048e-08
3.96576e-08
-1.9986e-06
1.99825e-06
-3.60861e-08
3.64398e-08
-1.99785e-06
1.99742e-06
-3.27017e-08
3.3129e-08
-1.99695e-06
1.99648e-06
-2.90859e-08
2.95645e-08
-1.99596e-06
1.99541e-06
-2.49282e-08
2.54759e-08
-1.99476e-06
1.99395e-06
-1.97106e-08
2.05157e-08
-1.26512e-08
1.15892e-08
2.10466e-06
-2.1086e-06
2.1127e-06
-5.64046e-08
5.23068e-08
-2.11663e-06
2.12029e-06
-6.9448e-08
6.57907e-08
-2.12368e-06
2.12654e-06
-7.10893e-08
6.82275e-08
-2.129e-06
2.13105e-06
-6.73166e-08
6.52706e-08
-2.13285e-06
2.1344e-06
-6.2981e-08
6.14272e-08
-2.13583e-06
2.1371e-06
-5.90504e-08
5.77736e-08
-2.13831e-06
2.13942e-06
-5.54978e-08
5.43906e-08
-2.14048e-06
2.14146e-06
-5.21218e-08
5.11388e-08
-2.14241e-06
2.14329e-06
-4.88323e-08
4.79502e-08
-2.14415e-06
2.14495e-06
-4.56075e-08
4.48078e-08
-2.14573e-06
2.14646e-06
-4.24361e-08
4.17021e-08
-2.14718e-06
2.14787e-06
-3.92909e-08
3.86062e-08
-2.14855e-06
2.1492e-06
-3.61241e-08
3.54744e-08
-2.14985e-06
2.15047e-06
-3.28491e-08
3.22249e-08
-2.15109e-06
2.15169e-06
-2.93169e-08
2.8726e-08
-2.15225e-06
2.15275e-06
-2.53046e-08
2.48041e-08
-2.15316e-06
2.15341e-06
-2.05984e-08
2.03509e-08
-1.05939e-08
9.71366e-09
2.25548e-06
-2.25864e-06
2.26229e-06
-4.85525e-08
4.49089e-08
-2.26598e-06
2.26949e-06
-6.23304e-08
5.88225e-08
-2.27282e-06
2.2757e-06
-6.54545e-08
6.25725e-08
-2.27825e-06
2.28043e-06
-6.32277e-08
6.10468e-08
-2.2824e-06
2.28413e-06
-5.98344e-08
5.81023e-08
-2.28575e-06
2.28723e-06
-5.64355e-08
5.49621e-08
-2.28864e-06
2.28996e-06
-5.32061e-08
5.18886e-08
-2.29124e-06
2.29245e-06
-5.00641e-08
4.88561e-08
-2.29364e-06
2.29476e-06
-4.69623e-08
4.58397e-08
-2.29587e-06
2.29693e-06
-4.38898e-08
4.28353e-08
-2.29797e-06
2.29897e-06
-4.08385e-08
3.98374e-08
-2.29997e-06
2.30093e-06
-3.77834e-08
3.68229e-08
-2.3019e-06
2.30283e-06
-3.46812e-08
3.37528e-08
-2.30376e-06
2.30465e-06
-3.14573e-08
3.05611e-08
-2.30555e-06
2.30639e-06
-2.79986e-08
2.71549e-08
-2.3072e-06
2.30793e-06
-2.41763e-08
2.34462e-08
-2.30858e-06
2.30908e-06
-1.99551e-08
1.94515e-08
-8.88542e-09
8.15131e-09
2.41713e-06
-2.41968e-06
2.42287e-06
-4.16042e-08
3.84118e-08
-2.42627e-06
2.4296e-06
-5.55131e-08
5.2185e-08
-2.43283e-06
2.43572e-06
-5.97789e-08
5.68886e-08
-2.43836e-06
2.44066e-06
-5.88778e-08
5.6574e-08
-2.44278e-06
2.44466e-06
-5.63531e-08
5.44671e-08
-2.44644e-06
2.44807e-06
-5.34621e-08
5.18341e-08
-2.44964e-06
2.45111e-06
-5.05406e-08
4.90733e-08
-2.45255e-06
2.4539e-06
-4.76139e-08
4.62584e-08
-2.45524e-06
2.45651e-06
-4.46791e-08
4.34094e-08
-2.45777e-06
2.45897e-06
-4.17398e-08
4.05385e-08
-2.46017e-06
2.46131e-06
-3.87934e-08
3.76475e-08
-2.46246e-06
2.46356e-06
-3.582e-08
3.472e-08
-2.46466e-06
2.46572e-06
-3.27849e-08
3.1727e-08
-2.46677e-06
2.46778e-06
-2.96319e-08
2.86224e-08
-2.46878e-06
2.46972e-06
-2.6287e-08
2.53513e-08
-2.47062e-06
2.47143e-06
-2.26956e-08
2.18869e-08
-2.47216e-06
2.47277e-06
-1.89064e-08
1.82978e-08
-7.46004e-09
6.84703e-09
2.59041e-06
-2.59257e-06
2.59534e-06
-3.55399e-08
3.27766e-08
-2.59842e-06
2.60152e-06
-4.90776e-08
4.59805e-08
-2.60461e-06
2.60745e-06
-5.41114e-08
5.12679e-08
-2.61012e-06
2.61251e-06
-5.43013e-08
5.19131e-08
-2.61474e-06
2.61676e-06
-5.25771e-08
5.05582e-08
-2.61868e-06
2.62045e-06
-5.01915e-08
4.84231e-08
-2.62216e-06
2.62377e-06
-4.75893e-08
4.59871e-08
-2.62534e-06
2.62682e-06
-4.48857e-08
4.3402e-08
-2.62828e-06
2.62968e-06
-4.21219e-08
4.07297e-08
-2.63106e-06
2.63238e-06
-3.93197e-08
3.80017e-08
-2.63369e-06
2.63494e-06
-3.64852e-08
3.52296e-08
-2.6362e-06
2.6374e-06
-3.36063e-08
3.24063e-08
-2.63859e-06
2.63974e-06
-3.06602e-08
2.95155e-08
-2.64088e-06
2.64196e-06
-2.76106e-08
2.65313e-08
-2.64302e-06
2.644e-06
-2.44195e-08
2.34307e-08
-2.64495e-06
2.64581e-06
-2.10811e-08
2.02249e-08
-2.6466e-06
2.64728e-06
-1.7674e-08
1.69959e-08
-6.26778e-09
5.75341e-09
2.77621e-06
-2.7779e-06
2.78029e-06
-3.02949e-08
2.79088e-08
-2.78306e-06
2.78591e-06
-4.31075e-08
4.02578e-08
-2.78882e-06
2.79156e-06
-4.85631e-08
4.58172e-08
-2.7942e-06
2.79662e-06
-4.95849e-08
4.7167e-08
-2.79893e-06
2.80104e-06
-4.85569e-08
4.6444e-08
-2.80307e-06
2.80496e-06
-4.6655e-08
4.47705e-08
-2.80679e-06
2.80851e-06
-4.43795e-08
4.26585e-08
-2.8102e-06
2.8118e-06
-4.19113e-08
4.03123e-08
-2.81338e-06
2.81488e-06
-3.93302e-08
3.78281e-08
-2.81637e-06
2.81779e-06
-3.66772e-08
3.5256e-08
-2.81921e-06
2.82056e-06
-3.39695e-08
3.26192e-08
-2.8219e-06
2.82319e-06
-3.12052e-08
2.99215e-08
-2.82446e-06
2.82568e-06
-2.83744e-08
2.71596e-08
-2.82688e-06
2.82801e-06
-2.54609e-08
2.43263e-08
-2.82912e-06
2.83015e-06
-2.24542e-08
2.14222e-08
-2.83114e-06
2.83204e-06
-1.93771e-08
1.84787e-08
-2.83288e-06
2.83362e-06
-1.63113e-08
1.55736e-08
-5.26518e-09
4.83043e-09
2.97533e-06
-2.97683e-06
2.97889e-06
-2.57653e-08
2.37024e-08
-2.98137e-06
2.98398e-06
-3.76225e-08
3.50145e-08
-2.9867e-06
2.98932e-06
-4.32219e-08
4.05993e-08
-2.9919e-06
2.9943e-06
-4.48333e-08
4.24289e-08
-2.99663e-06
2.9988e-06
-4.43731e-08
4.22082e-08
-3.0009e-06
3.00287e-06
-4.2906e-08
4.09387e-08
-3.00479e-06
3.00661e-06
-4.09471e-08
3.91318e-08
-3.0084e-06
3.01009e-06
-3.87183e-08
3.70227e-08
-3.01177e-06
3.01337e-06
-3.63291e-08
3.47326e-08
-3.01495e-06
3.01646e-06
-3.3838e-08
3.23274e-08
-3.01796e-06
3.0194e-06
-3.12736e-08
2.98415e-08
-3.02082e-06
3.02217e-06
-2.86451e-08
2.72895e-08
-3.02352e-06
3.02479e-06
-2.59557e-08
2.46808e-08
-3.02605e-06
3.02723e-06
-2.32061e-08
2.20231e-08
-3.02839e-06
3.02946e-06
-2.04054e-08
1.93328e-08
-3.03049e-06
3.03143e-06
-1.75901e-08
1.66493e-08
-3.03232e-06
3.03311e-06
-1.48334e-08
1.40398e-08
-4.41602e-09
4.04584e-09
3.18877e-06
-3.19004e-06
3.19183e-06
-2.18458e-08
2.00546e-08
-3.19404e-06
3.19642e-06
-3.26058e-08
3.02241e-08
-3.19896e-06
3.20145e-06
-3.81286e-08
3.56377e-08
-3.20394e-06
3.20631e-06
-4.01222e-08
3.77561e-08
-3.20863e-06
3.21082e-06
-4.01034e-08
3.79165e-08
-3.21296e-06
3.21499e-06
-3.90092e-08
3.69878e-08
-3.21698e-06
3.21886e-06
-3.73421e-08
3.54578e-08
-3.22072e-06
3.22249e-06
-3.53462e-08
3.3576e-08
-3.22425e-06
3.22592e-06
-3.31517e-08
3.148e-08
-3.22758e-06
3.22916e-06
-3.08311e-08
2.92483e-08
-3.23074e-06
3.23224e-06
-2.8424e-08
2.69254e-08
-3.23372e-06
3.23514e-06
-2.59501e-08
2.4536e-08
-3.23653e-06
3.23786e-06
-2.34239e-08
2.20996e-08
-3.23916e-06
3.24039e-06
-2.08595e-08
1.96352e-08
-3.24158e-06
3.24269e-06
-1.8278e-08
1.71679e-08
-3.24376e-06
3.24474e-06
-1.57203e-08
1.47385e-08
-3.24567e-06
3.24652e-06
-1.32474e-08
1.24018e-08
-3.74232e-09
3.46514e-09
2.87068e-06
-2.87159e-06
2.87292e-06
-1.8438e-08
1.71124e-08
-2.87459e-06
2.87643e-06
-2.80247e-08
2.61845e-08
-2.87842e-06
2.88042e-06
-3.32949e-08
3.13025e-08
-2.88244e-06
2.8844e-06
-3.54936e-08
3.35413e-08
-2.88634e-06
2.88819e-06
-3.58e-08
3.39539e-08
-2.89001e-06
2.89174e-06
-3.50159e-08
3.32837e-08
-2.89346e-06
2.89509e-06
-3.3611e-08
3.1982e-08
-2.8967e-06
2.89824e-06
-3.18364e-08
3.02985e-08
-2.89977e-06
2.90122e-06
-2.9835e-08
2.83792e-08
-2.90267e-06
2.90405e-06
-2.76903e-08
2.63113e-08
-2.90542e-06
2.90672e-06
-2.54512e-08
2.41469e-08
-2.90802e-06
2.90925e-06
-2.31466e-08
2.19185e-08
-2.91046e-06
2.91161e-06
-2.08002e-08
1.96531e-08
-2.91273e-06
2.91379e-06
-1.84352e-08
1.73764e-08
-2.91482e-06
2.91579e-06
-1.6079e-08
1.51172e-08
-2.91672e-06
2.91757e-06
-1.37714e-08
1.29141e-08
-2.91839e-06
2.91914e-06
-1.15617e-08
1.08115e-08
-3.15995e-09
2.8824e-09
3.49938e-06
-3.50031e-06
3.50167e-06
-1.58928e-08
1.45325e-08
-3.50342e-06
3.50537e-06
-2.44631e-08
2.25117e-08
-3.50751e-06
3.50969e-06
-2.94116e-08
2.72345e-08
-3.51194e-06
3.51413e-06
-3.16642e-08
2.94736e-08
-3.51633e-06
3.51844e-06
-3.21618e-08
3.00487e-08
-3.52055e-06
3.52256e-06
-3.15915e-08
2.95824e-08
-3.52456e-06
3.52646e-06
-3.03845e-08
2.84799e-08
-3.52835e-06
3.53016e-06
-2.87872e-08
2.69815e-08
-3.53196e-06
3.53367e-06
-2.69473e-08
2.52349e-08
-3.53537e-06
3.53699e-06
-2.49548e-08
2.33324e-08
-3.5386e-06
3.54014e-06
-2.28646e-08
2.13318e-08
-3.54165e-06
3.54309e-06
-2.07122e-08
1.92715e-08
-3.54452e-06
3.54586e-06
-1.85273e-08
1.71837e-08
-3.54718e-06
3.54842e-06
-1.63375e-08
1.50979e-08
-3.54963e-06
3.55076e-06
-1.41726e-08
1.3044e-08
-3.55185e-06
3.55286e-06
-1.20694e-08
1.10568e-08
-3.55384e-06
3.55473e-06
-1.0068e-08
9.17204e-09
-2.57796e-09
2.30231e-09
4.26568e-06
-4.26661e-06
4.26799e-06
-1.32902e-08
1.19141e-08
-4.26978e-06
4.27182e-06
-2.07015e-08
1.86657e-08
-4.27409e-06
4.27643e-06
-2.51839e-08
2.28407e-08
-4.27889e-06
4.28131e-06
-2.73819e-08
2.49578e-08
-4.28378e-06
4.28617e-06
-2.80097e-08
2.56204e-08
-4.28857e-06
4.29087e-06
-2.76297e-08
2.53241e-08
-4.29318e-06
4.29538e-06
-2.66209e-08
2.44151e-08
-4.29758e-06
4.29968e-06
-2.52148e-08
2.3113e-08
-4.30178e-06
4.30377e-06
-2.35579e-08
2.15605e-08
-4.30576e-06
4.30765e-06
-2.17435e-08
1.98507e-08
-4.30953e-06
4.31132e-06
-1.98314e-08
1.80449e-08
-4.31308e-06
4.31476e-06
-1.78624e-08
1.61858e-08
-4.31641e-06
4.31798e-06
-1.58705e-08
1.43089e-08
-4.31951e-06
4.32095e-06
-1.38863e-08
1.24452e-08
-4.32236e-06
4.32367e-06
-1.19395e-08
1.06238e-08
-4.32495e-06
4.32614e-06
-1.00626e-08
8.8746e-09
-4.32729e-06
4.32835e-06
-8.28752e-09
7.2252e-09
-2.00084e-09
1.7284e-09
5.19997e-06
-5.2008e-06
5.20218e-06
-1.06646e-08
9.28674e-09
-5.204e-06
5.2061e-06
-1.67899e-08
1.4692e-08
-5.20847e-06
5.21096e-06
-2.06488e-08
1.81594e-08
-5.21361e-06
5.21626e-06
-2.26586e-08
2.00105e-08
-5.21898e-06
5.22165e-06
-2.33292e-08
2.06604e-08
-5.22436e-06
5.22698e-06
-2.30956e-08
2.04786e-08
-5.22961e-06
5.23214e-06
-2.22725e-08
1.97426e-08
-5.23467e-06
5.23709e-06
-2.10655e-08
1.86401e-08
-5.23951e-06
5.24182e-06
-1.9612e-08
1.73001e-08
-5.24412e-06
5.24631e-06
-1.80038e-08
1.58111e-08
-5.24849e-06
5.25056e-06
-1.63024e-08
1.42338e-08
-5.2526e-06
5.25454e-06
-1.45514e-08
1.26118e-08
-5.25645e-06
5.25826e-06
-1.2787e-08
1.09811e-08
-5.26003e-06
5.2617e-06
-1.10402e-08
9.37192e-09
-5.26333e-06
5.26486e-06
-9.33902e-09
7.81067e-09
-5.26635e-06
5.26774e-06
-7.71069e-09
6.32171e-09
-5.26909e-06
5.27034e-06
-6.17942e-09
4.92559e-09
-1.43007e-09
1.15944e-09
6.33857e-06
-6.33959e-06
6.34096e-06
-8.03872e-09
6.66193e-09
-6.34281e-06
6.34496e-06
-1.27666e-08
1.06164e-08
-6.34743e-06
6.35005e-06
-1.58421e-08
1.3218e-08
-6.35288e-06
6.35574e-06
-1.75124e-08
1.46468e-08
-6.35873e-06
6.36168e-06
-1.8115e-08
1.51637e-08
-6.3647e-06
6.36764e-06
-1.79623e-08
1.50208e-08
-6.37061e-06
6.37349e-06
-1.72967e-08
1.44211e-08
-6.37638e-06
6.37915e-06
-1.62871e-08
1.35107e-08
-6.38193e-06
6.38458e-06
-1.50532e-08
1.23962e-08
-6.38723e-06
6.38975e-06
-1.36784e-08
1.11536e-08
-6.39226e-06
6.39464e-06
-1.22213e-08
9.83767e-09
-6.397e-06
6.39924e-06
-1.07247e-08
8.48872e-09
-6.40144e-06
6.40353e-06
-9.2235e-09
7.13967e-09
-6.40558e-06
6.40751e-06
-7.74674e-09
5.81739e-09
-6.4094e-06
6.41117e-06
-6.31885e-09
4.54392e-09
-6.4129e-06
6.41453e-06
-4.96157e-09
3.33808e-09
-6.41611e-06
6.41759e-06
-3.69258e-09
2.2145e-09
-8.60312e-10
5.84866e-10
7.72728e-06
-7.72739e-06
7.72879e-06
-5.41019e-09
4.01743e-09
-7.73067e-06
7.73289e-06
-8.63997e-09
6.41984e-09
-7.73547e-06
7.73824e-06
-1.07764e-08
8.00277e-09
-7.74126e-06
7.74436e-06
-1.19488e-08
8.85062e-09
-7.74762e-06
7.75087e-06
-1.2357e-08
9.10434e-09
-7.75423e-06
7.75752e-06
-1.2202e-08
8.91157e-09
-7.76086e-06
7.76411e-06
-1.16503e-08
8.39899e-09
-7.76739e-06
7.77055e-06
-1.08258e-08
7.66391e-09
-7.77372e-06
7.77676e-06
-9.82088e-09
6.78099e-09
-7.77979e-06
7.78269e-06
-8.7032e-09
5.80636e-09
-7.78557e-06
7.78831e-06
-7.52225e-09
4.78203e-09
-7.79102e-06
7.7936e-06
-6.31513e-09
3.74014e-09
-7.79614e-06
7.79854e-06
-5.11197e-09
2.70673e-09
-7.80091e-06
7.80315e-06
-3.93709e-09
1.70269e-09
-7.80534e-06
7.80741e-06
-2.8101e-09
7.44672e-10
-7.80943e-06
7.81133e-06
-1.74721e-09
-1.54057e-10
-7.81319e-06
7.81494e-06
-7.60576e-10
-9.83966e-10
-2.73004e-10
-2.43461e-11
9.4193e-06
-9.42025e-06
9.42171e-06
-2.73223e-09
1.26901e-09
-9.4237e-06
9.42606e-06
-4.35501e-09
1.99021e-09
-9.42883e-06
9.43184e-06
-5.3998e-09
2.3975e-09
-9.43513e-06
9.43854e-06
-5.91728e-09
2.51063e-09
-9.44215e-06
9.44578e-06
-6.00104e-09
2.37555e-09
-9.44953e-06
9.45324e-06
-5.75319e-09
2.04594e-09
-9.45703e-06
9.46072e-06
-5.26415e-09
1.57163e-09
-9.46446e-06
9.46807e-06
-4.60569e-09
9.9448e-10
-9.47169e-06
9.47518e-06
-3.8345e-09
3.49157e-10
-9.47866e-06
9.48199e-06
-2.99433e-09
-3.3625e-10
-9.4853e-06
9.48846e-06
-2.11889e-09
-1.0389e-09
-9.49159e-06
9.49457e-06
-1.23462e-09
-1.73987e-09
-9.49751e-06
9.50029e-06
-3.63014e-10
-2.42357e-09
-9.50304e-06
9.50564e-06
4.78686e-10
-3.07727e-09
-9.5082e-06
9.51061e-06
1.2767e-09
-3.69057e-09
-9.51298e-06
9.51522e-06
2.02036e-09
-4.25572e-09
-9.51741e-06
9.51948e-06
2.70225e-09
-4.76762e-09
3.7944e-10
-7.44116e-10
1.14824e-05
-1.14824e-05
1.14841e-05
1.28348e-10
-1.79949e-09
-1.14864e-05
1.14891e-05
2.75726e-10
-2.98644e-09
-1.14923e-05
1.14957e-05
4.90074e-10
-3.94525e-09
-1.14995e-05
1.15035e-05
7.77799e-10
-4.7125e-09
-1.15076e-05
1.15118e-05
1.13497e-09
-5.33438e-09
-1.15162e-05
1.15205e-05
1.55236e-09
-5.85491e-09
-1.15249e-05
1.15292e-05
2.01858e-09
-6.30915e-09
-1.15335e-05
1.15377e-05
2.52088e-09
-6.71977e-09
-1.15419e-05
1.1546e-05
3.04657e-09
-7.10088e-09
-1.155e-05
1.15539e-05
3.58351e-09
-7.45977e-09
-1.15578e-05
1.15615e-05
4.12002e-09
-7.79839e-09
-1.15651e-05
1.15686e-05
4.64494e-09
-8.11491e-09
-1.1572e-05
1.15753e-05
5.14865e-09
-8.40677e-09
-1.15785e-05
1.15815e-05
5.62286e-09
-8.67076e-09
-1.15845e-05
1.15874e-05
6.06028e-09
-8.90302e-09
-1.15902e-05
1.15928e-05
6.45569e-09
-9.10105e-09
-1.15954e-05
1.15979e-05
6.80581e-09
-9.2635e-09
1.02908e-09
-1.33692e-09
8.40631e-06
-8.40614e-06
8.40747e-06
3.51015e-09
-4.83955e-09
-8.40926e-06
8.4114e-06
5.74959e-09
-7.88099e-09
-8.41388e-06
8.41656e-06
7.44879e-09
-1.01249e-08
-8.41948e-06
8.42248e-06
8.68021e-09
-1.16808e-08
-8.42564e-06
8.4288e-06
9.5466e-09
-1.27027e-08
-8.43205e-06
8.43524e-06
1.01501e-08
-1.33426e-08
-8.43849e-06
8.44164e-06
1.05752e-08
-1.37249e-08
-8.44481e-06
8.44787e-06
1.08811e-08
-1.39374e-08
-8.45093e-06
8.45386e-06
1.11089e-08
-1.40409e-08
-8.45678e-06
8.45957e-06
1.12851e-08
-1.40754e-08
-8.46234e-06
8.46498e-06
1.14247e-08
-1.40647e-08
-8.4676e-06
8.47009e-06
1.15345e-08
-1.40212e-08
-8.47255e-06
8.47488e-06
1.16184e-08
-1.39527e-08
-8.47719e-06
8.47937e-06
1.16776e-08
-1.38633e-08
-8.48153e-06
8.48357e-06
1.17111e-08
-1.37535e-08
-8.48559e-06
8.48749e-06
1.17188e-08
-1.36243e-08
-8.48937e-06
8.49115e-06
1.17007e-08
-1.34767e-08
1.63428e-09
-1.96806e-09
7.31733e-06
-7.31818e-06
7.31956e-06
6.2752e-09
-7.65181e-09
-7.32141e-06
7.32357e-06
1.01612e-08
-1.23211e-08
-7.32605e-06
7.32869e-06
1.29543e-08
-1.55947e-08
-7.33154e-06
7.33442e-06
1.48153e-08
-1.76978e-08
-7.33742e-06
7.34038e-06
1.59634e-08
-1.8922e-08
-7.34339e-06
7.34632e-06
1.66097e-08
-1.95408e-08
-7.34928e-06
7.35212e-06
1.69236e-08
-1.97673e-08
-7.35497e-06
7.35769e-06
1.70225e-08
-1.97461e-08
-7.3604e-06
7.36299e-06
1.69872e-08
-1.95749e-08
-7.36556e-06
7.368e-06
1.68703e-08
-1.93157e-08
-7.37043e-06
7.37273e-06
1.6703e-08
-1.90056e-08
-7.37501e-06
7.37717e-06
1.65028e-08
-1.86649e-08
-7.37931e-06
7.38133e-06
1.62805e-08
-1.83066e-08
-7.38333e-06
7.38523e-06
1.60424e-08
-1.79381e-08
-7.3871e-06
7.38887e-06
1.57901e-08
-1.75617e-08
-7.39062e-06
7.39228e-06
1.55255e-08
-1.71796e-08
-7.39391e-06
7.39545e-06
1.52501e-08
-1.67937e-08
2.2998e-09
-2.68032e-09
6.37038e-06
-6.37132e-06
6.37283e-06
9.18996e-09
-1.07061e-08
-6.37484e-06
6.37714e-06
1.46996e-08
-1.70039e-08
-6.37974e-06
6.38246e-06
1.84532e-08
-2.11683e-08
-6.38533e-06
6.38819e-06
2.07663e-08
-2.36266e-08
-6.39112e-06
6.39396e-06
2.20244e-08
-2.48681e-08
-6.39682e-06
6.39957e-06
2.25757e-08
-2.53195e-08
-6.4023e-06
6.40491e-06
2.26823e-08
-2.52894e-08
-6.40749e-06
6.40995e-06
2.25169e-08
-2.49753e-08
-6.41238e-06
6.41469e-06
2.21927e-08
-2.4502e-08
-6.41698e-06
6.41914e-06
2.17799e-08
-2.3945e-08
-6.42128e-06
6.42331e-06
2.13196e-08
-2.33471e-08
-6.42531e-06
6.42721e-06
2.08338e-08
-2.27307e-08
-6.42908e-06
6.43085e-06
2.03369e-08
-2.21103e-08
-6.4326e-06
6.43426e-06
1.98366e-08
-2.14937e-08
-6.4359e-06
6.43744e-06
1.93355e-08
-2.08832e-08
-6.43897e-06
6.44042e-06
1.8836e-08
-2.02809e-08
-6.44184e-06
6.44319e-06
1.83399e-08
-1.96887e-08
3.06464e-09
-3.50939e-09
5.54544e-06
-5.54752e-06
5.54926e-06
1.24372e-08
-1.41733e-08
-5.55151e-06
5.55403e-06
1.95828e-08
-2.21086e-08
-5.55682e-06
5.55967e-06
2.41431e-08
-2.69899e-08
-5.56262e-06
5.56549e-06
2.66979e-08
-2.95735e-08
-5.56838e-06
5.57114e-06
2.78678e-08
-3.0624e-08
-5.57386e-06
5.57645e-06
2.81721e-08
-3.07536e-08
-5.57899e-06
5.58138e-06
2.79698e-08
-3.03679e-08
-5.58374e-06
5.58597e-06
2.74823e-08
-2.97066e-08
-5.58815e-06
5.59022e-06
2.68434e-08
-2.89088e-08
-5.59225e-06
5.59417e-06
2.61314e-08
-2.80523e-08
-5.59607e-06
5.59786e-06
2.53889e-08
-2.71777e-08
-5.59962e-06
5.60129e-06
2.46374e-08
-2.63043e-08
-5.60293e-06
5.60448e-06
2.38906e-08
-2.54445e-08
-5.60601e-06
5.60746e-06
2.31556e-08
-2.46045e-08
-5.60889e-06
5.61024e-06
2.24343e-08
-2.37853e-08
-5.61157e-06
5.61283e-06
2.17286e-08
-2.29884e-08
-5.61408e-06
5.61525e-06
2.10397e-08
-2.22146e-08
3.95892e-09
-4.4736e-09
4.82851e-06
-4.8298e-06
4.83183e-06
1.6182e-08
-1.82186e-08
-4.83439e-06
4.83718e-06
2.4952e-08
-2.77418e-08
-4.84019e-06
4.84318e-06
3.01193e-08
-3.31144e-08
-4.84621e-06
4.8491e-06
3.26634e-08
-3.55498e-08
-4.85193e-06
4.85459e-06
3.35287e-08
-3.61873e-08
-4.85718e-06
4.85959e-06
3.3432e-08
-3.58437e-08
-4.86194e-06
4.86412e-06
3.28269e-08
-3.50142e-08
-4.86625e-06
4.86825e-06
3.19685e-08
-3.39632e-08
-4.8702e-06
4.87203e-06
3.0997e-08
-3.28274e-08
-4.87382e-06
4.87551e-06
2.99864e-08
-3.16747e-08
-4.87717e-06
4.87873e-06
2.89734e-08
-3.05359e-08
-4.88027e-06
4.88172e-06
2.79738e-08
-2.94228e-08
-4.88314e-06
4.88449e-06
2.69979e-08
-2.83432e-08
-4.88581e-06
4.88706e-06
2.60506e-08
-2.73006e-08
-4.88829e-06
4.88945e-06
2.5132e-08
-2.6294e-08
-4.8906e-06
4.89168e-06
2.42428e-08
-2.53234e-08
-4.89274e-06
4.89375e-06
2.33833e-08
-2.43886e-08
4.97973e-09
-5.52853e-09
4.20355e-06
-4.20413e-06
4.20655e-06
2.05953e-08
-2.30179e-08
-4.20946e-06
4.21251e-06
3.08761e-08
-3.39328e-08
-4.21573e-06
4.21885e-06
3.63981e-08
-3.95201e-08
-4.22192e-06
4.22478e-06
3.86352e-08
-4.14902e-08
-4.22752e-06
4.23004e-06
3.89698e-08
-4.14877e-08
-4.23244e-06
4.23465e-06
3.8325e-08
-4.05306e-08
-4.23676e-06
4.23871e-06
3.72365e-08
-3.91869e-08
-4.2406e-06
4.24235e-06
3.59722e-08
-3.77205e-08
-4.24404e-06
4.24563e-06
3.46603e-08
-3.62462e-08
-4.24718e-06
4.24863e-06
3.33583e-08
-3.48089e-08
-4.25005e-06
4.25138e-06
3.20891e-08
-3.34227e-08
-4.25269e-06
4.25392e-06
3.08593e-08
-3.20885e-08
-4.25512e-06
4.25626e-06
2.96735e-08
-3.08081e-08
-4.25737e-06
4.25842e-06
2.85336e-08
-2.95818e-08
-4.25945e-06
4.26042e-06
2.74376e-08
-2.84066e-08
-4.26137e-06
4.26226e-06
2.63847e-08
-2.72812e-08
-4.26314e-06
4.26398e-06
2.53741e-08
-2.62041e-08
6.01682e-09
-6.44741e-09
3.65844e-06
-3.66148e-06
3.66438e-06
2.58562e-08
-2.87476e-08
-3.66761e-06
3.6709e-06
3.73392e-08
-4.06252e-08
-3.67428e-06
3.67747e-06
4.29127e-08
-4.61001e-08
-3.68051e-06
3.68326e-06
4.45064e-08
-4.72611e-08
-3.68585e-06
3.68817e-06
4.4088e-08
-4.64097e-08
-3.69035e-06
3.69231e-06
4.2768e-08
-4.47305e-08
-3.69417e-06
3.69586e-06
4.11409e-08
-4.28326e-08
-3.69747e-06
3.69896e-06
3.94574e-08
-4.09464e-08
-3.7004e-06
3.70173e-06
3.78123e-08
-3.9144e-08
-3.70302e-06
3.70422e-06
3.62344e-08
-3.74375e-08
-3.70539e-06
3.70649e-06
3.47272e-08
-3.58199e-08
-3.70755e-06
3.70854e-06
3.32855e-08
-3.42802e-08
-3.70951e-06
3.71042e-06
3.19077e-08
-3.28139e-08
-3.7113e-06
3.71213e-06
3.05926e-08
-3.14185e-08
-3.71293e-06
3.71369e-06
2.93363e-08
-3.00894e-08
-3.71442e-06
3.71511e-06
2.81373e-08
-2.88248e-08
-3.71578e-06
3.71641e-06
2.69932e-08
-2.76217e-08
6.72037e-09
-6.78578e-09
3.18507e-06
-3.18781e-06
3.19121e-06
3.21184e-08
-3.55098e-08
-3.19468e-06
3.19816e-06
4.42448e-08
-4.77152e-08
-3.20165e-06
3.20486e-06
4.95228e-08
-5.27255e-08
-3.20783e-06
3.21045e-06
5.01408e-08
-5.27655e-08
-3.21286e-06
3.21496e-06
4.87827e-08
-5.08894e-08
-3.21689e-06
3.21859e-06
4.66973e-08
-4.83959e-08
-3.22016e-06
3.22156e-06
4.44999e-08
-4.59005e-08
-3.22287e-06
3.22405e-06
4.23928e-08
-4.35747e-08
-3.22516e-06
3.22618e-06
4.04203e-08
-4.14345e-08
-3.22714e-06
3.22802e-06
3.8575e-08
-3.94537e-08
-3.22885e-06
3.22962e-06
3.68391e-08
-3.76028e-08
-3.23035e-06
3.23101e-06
3.51948e-08
-3.5858e-08
-3.23164e-06
3.23221e-06
3.36347e-08
-3.42084e-08
-3.23276e-06
3.23325e-06
3.21546e-08
-3.26479e-08
-3.23372e-06
3.23414e-06
3.07492e-08
-3.11706e-08
-3.23453e-06
3.23489e-06
2.94166e-08
-2.97746e-08
-3.23523e-06
3.23553e-06
2.81536e-08
-2.84566e-08
6.42545e-09
-4.71192e-09
2.77127e-06
-2.77614e-06
2.77999e-06
3.93669e-08
-4.32237e-08
-2.78376e-06
2.78759e-06
5.15791e-08
-5.54165e-08
-2.79136e-06
2.79467e-06
5.61934e-08
-5.9509e-08
-2.79763e-06
2.80012e-06
5.55188e-08
-5.80176e-08
-2.80228e-06
2.80406e-06
5.30137e-08
-5.47918e-08
-2.80556e-06
2.80677e-06
5.00278e-08
-5.12415e-08
-2.80778e-06
2.80858e-06
4.7173e-08
-4.79735e-08
-2.80923e-06
2.80973e-06
4.45843e-08
-4.50813e-08
-2.81011e-06
2.81037e-06
4.22439e-08
-4.2509e-08
-2.81054e-06
2.81062e-06
4.01021e-08
-4.01806e-08
-2.81062e-06
2.81054e-06
3.8116e-08
-3.80364e-08
-2.81038e-06
2.81016e-06
3.62537e-08
-3.60355e-08
-2.80988e-06
2.80954e-06
3.44995e-08
-3.41575e-08
-2.80913e-06
2.80867e-06
3.28453e-08
-3.23914e-08
-2.80816e-06
2.8076e-06
3.12838e-08
-3.0729e-08
-2.80699e-06
2.80635e-06
2.98136e-08
-2.91695e-08
-2.80565e-06
2.80493e-06
2.84329e-08
-2.77135e-08
9.68366e-10
8.56212e-10
2.41117e-06
-2.41745e-06
2.42318e-06
4.79265e-08
-5.36657e-08
-2.42859e-06
2.4336e-06
5.99582e-08
-6.49838e-08
-2.43779e-06
2.44085e-06
6.31123e-08
-6.61776e-08
-2.443e-06
2.44419e-06
6.04398e-08
-6.16329e-08
-2.44453e-06
2.44409e-06
5.61547e-08
-5.57119e-08
-2.44294e-06
2.44121e-06
5.17736e-08
-5.0047e-08
-2.43892e-06
2.43624e-06
4.78877e-08
-4.52042e-08
-2.43311e-06
2.42972e-06
4.45336e-08
-4.11436e-08
-2.42597e-06
2.42206e-06
4.15992e-08
-3.76842e-08
-2.41785e-06
2.41354e-06
3.89721e-08
-3.46665e-08
-2.40899e-06
2.4044e-06
3.65729e-08
-3.1981e-08
-2.3996e-06
2.39481e-06
3.43497e-08
-2.95568e-08
-2.38984e-06
2.38492e-06
3.22771e-08
-2.73543e-08
-2.37985e-06
2.37486e-06
3.03417e-08
-2.53474e-08
-2.36975e-06
2.36473e-06
2.85338e-08
-2.35168e-08
-2.35961e-06
2.35461e-06
2.68521e-08
-2.18533e-08
-2.34954e-06
2.34459e-06
2.53009e-08
-2.03578e-08
2.95631e-08
2.07144e-06
-2.14045e-06
2.13881e-06
6.08937e-08
-5.9242e-08
-2.13452e-06
2.12668e-06
7.04169e-08
-6.25666e-08
-2.11529e-06
2.10087e-06
6.67914e-08
-5.2358e-08
-2.08329e-06
2.06393e-06
5.80426e-08
-3.86766e-08
-2.04291e-06
2.02183e-06
4.88507e-08
-2.77658e-08
-2.00037e-06
1.97982e-06
4.10305e-08
-2.04762e-08
-1.95956e-06
1.94059e-06
3.49833e-08
-1.60138e-08
-1.92217e-06
1.90507e-06
3.04041e-08
-1.33028e-08
-1.88854e-06
1.87322e-06
2.68678e-08
-1.15483e-08
-1.85841e-06
1.84466e-06
2.40382e-08
-1.02882e-08
-1.83133e-06
1.81893e-06
2.16907e-08
-9.28742e-09
-1.80687e-06
1.79563e-06
1.96837e-08
-8.43546e-09
-1.78467e-06
1.77442e-06
1.79346e-08
-7.68447e-09
-1.76441e-06
1.75503e-06
1.63924e-08
-7.01256e-09
-1.74585e-06
1.73724e-06
1.50233e-08
-6.41009e-09
-1.7288e-06
1.72087e-06
1.3809e-08
-5.8754e-09
-1.71309e-06
1.70577e-06
1.27538e-08
-5.43204e-09
5.40424e-10
-2.61767e-09
2.08566e-09
-2.56546e-09
5.6272e-09
-3.04492e-09
-9.07725e-09
1.25021e-08
-3.41028e-09
-1.55566e-08
1.81204e-08
-2.55355e-09
-2.00777e-08
2.14311e-08
-1.34582e-09
-2.21714e-08
2.23424e-08
-1.63723e-10
-2.1975e-08
2.11368e-08
8.46323e-10
-1.9887e-08
1.8287e-08
1.60949e-09
-1.63821e-08
1.42194e-08
2.17358e-09
-1.18344e-08
9.25926e-09
2.58705e-09
-6.51625e-09
3.62712e-09
2.90142e-09
-6.07725e-10
-2.53506e-09
3.1547e-09
5.79709e-09
-9.18021e-09
3.39423e-09
1.26734e-08
-1.62742e-08
3.61133e-09
1.9986e-08
-2.38125e-08
3.83641e-09
2.77379e-08
-3.17899e-08
4.06128e-09
3.59511e-08
-4.02271e-08
4.28464e-09
4.4625e-08
-4.9142e-08
4.52482e-09
5.37851e-08
-5.85675e-08
4.78945e-09
6.34503e-08
-6.84887e-08
5.04471e-09
7.36298e-08
-7.89343e-08
5.31e-09
8.43561e-08
-8.99083e-08
5.55698e-09
9.55959e-08
-1.01413e-07
5.82141e-09
1.07368e-07
-1.13449e-07
6.08461e-09
1.19668e-07
-1.26037e-07
6.37215e-09
1.32488e-07
-1.39116e-07
6.63003e-09
1.45819e-07
-1.52697e-07
6.88106e-09
1.59642e-07
-1.66766e-07
7.12609e-09
1.73946e-07
-1.81303e-07
7.35978e-09
1.88708e-07
-1.96291e-07
7.58562e-09
2.03914e-07
-2.1171e-07
7.79856e-09
2.19539e-07
-2.27539e-07
8.00215e-09
2.3556e-07
-2.43753e-07
8.19469e-09
2.5196e-07
-2.60335e-07
8.3783e-09
2.68714e-07
-2.772e-07
8.49145e-09
2.85799e-07
-2.94441e-07
8.6508e-09
3.03198e-07
-3.11986e-07
8.79976e-09
3.20822e-07
-3.29813e-07
9.00512e-09
3.38787e-07
-3.47911e-07
9.13917e-09
3.57009e-07
-3.6618e-07
9.18841e-09
3.75467e-07
-3.84751e-07
9.30266e-09
3.94069e-07
-4.03535e-07
9.48665e-09
4.12955e-07
-4.22434e-07
9.50053e-09
4.3203e-07
-4.416e-07
9.59287e-09
4.51195e-07
-4.60933e-07
9.7626e-09
4.70606e-07
-4.80327e-07
9.74714e-09
4.90164e-07
-4.99952e-07
9.81554e-09
5.09753e-07
-5.19593e-07
9.86874e-09
5.29554e-07
-5.39451e-07
9.92601e-09
5.49354e-07
-5.5929e-07
9.96635e-09
5.69346e-07
-5.79322e-07
1.0006e-08
5.893e-07
-5.99302e-07
1.00327e-08
6.09427e-07
-6.19456e-07
1.00594e-08
6.29478e-07
-6.3951e-07
1.00607e-08
6.49536e-07
-6.59578e-07
1.00683e-08
6.69739e-07
-6.79788e-07
1.00726e-08
6.89812e-07
-6.99841e-07
1.00483e-08
7.09839e-07
-7.19847e-07
1.00225e-08
7.29825e-07
-7.39957e-07
1.01413e-08
7.4991e-07
-7.59868e-07
9.96108e-09
7.69768e-07
-7.7968e-07
9.91127e-09
7.89528e-07
-7.99388e-07
9.85882e-09
8.09182e-07
-8.18977e-07
9.80193e-09
8.28717e-07
-8.38442e-07
9.74766e-09
8.48124e-07
-8.57768e-07
9.69798e-09
8.67391e-07
-8.76944e-07
9.64998e-09
8.8651e-07
-8.9595e-07
9.59109e-09
9.05436e-07
-9.14727e-07
9.49733e-09
9.24057e-07
-9.33082e-07
9.26699e-09
9.42165e-07
-9.51038e-07
9.10617e-09
9.59973e-07
-9.68681e-07
8.86644e-09
9.77381e-07
-9.85983e-07
8.63382e-09
9.94517e-07
-1.00306e-06
8.41724e-09
1.01121e-06
-1.01916e-06
7.71056e-09
1.0272e-06
-1.03552e-06
8.07795e-09
1.04374e-06
-1.05196e-06
7.93281e-09
1.05993e-06
-1.0681e-06
7.78494e-09
1.07568e-06
-1.08373e-06
7.49142e-09
1.09178e-06
-1.09951e-06
7.25621e-09
1.10482e-06
-1.10927e-06
4.16826e-09
1.11423e-06
-1.11985e-06
4.92396e-09
1.12506e-06
-1.13133e-06
5.1371e-09
1.13704e-06
-1.1444e-06
5.62591e-09
1.15261e-06
-1.16962e-06
1.55566e-08
1.17591e-06
-1.16743e-06
-1.07176e-08