/*--------------------------------*- C++ -*----------------------------------*\
  =========                 |
  \\      /  F ield         | OpenFOAM: The Open Source CFD Toolbox
   \\    /   O peration     | Website:  https://openfoam.org
    \\  /    A nd           | Version:  7
     \\/     M anipulation  |
\*---------------------------------------------------------------------------*/
FoamFile
{
    version     2.0;
    format      ascii;
    class       volVectorField;
    location    "600";
    object      U;
}
// * * * * * * * * * * * * * * * * * * * * * * * * * * * * * * * * * * * * * //

dimensions      [0 1 -1 0 0 0 0];

internalField   nonuniform List<vector> 
48900
(
(10.1555 0.422363 0)
(8.8165 -0.790483 0)
(7.84618 -0.155323 0)
(7.12553 -0.00358371 0)
(6.67539 0.0204992 0)
(6.39108 0.0216729 0)
(6.1832 0.0194723 0)
(6.01123 0.0167703 0)
(5.86235 0.0141358 0)
(5.73304 0.0118353 0)
(5.62171 0.00994215 0)
(5.52641 0.0084275 0)
(5.44532 0.00715768 0)
(5.37686 0.00605022 0)
(5.31979 0.00501038 0)
(5.27358 0.00390055 0)
(5.23907 0.00249989 0)
(5.21989 0.00245423 0)
(9.99731 0.025772 0)
(10.133 0.0871303 0)
(10.1789 0.0999315 0)
(10.1356 0.10547 0)
(10.0075 0.0953733 0)
(9.83147 0.0845548 0)
(9.63909 0.0756574 0)
(9.4489 0.0682084 0)
(9.26938 0.0616517 0)
(9.10349 0.0557672 0)
(8.95173 0.050465 0)
(8.81381 0.0456843 0)
(8.6891 0.0413022 0)
(8.57691 0.0371963 0)
(8.4767 0.0331805 0)
(8.3882 0.0289282 0)
(8.31172 0.0236995 0)
(8.24871 0.0149213 0)
(10.0006 0.0207389 0)
(10.0609 0.0953218 0)
(10.1157 0.115642 0)
(10.1549 0.115811 0)
(10.1712 0.108982 0)
(10.1703 0.102994 0)
(10.1574 0.0985322 0)
(10.1353 0.0948552 0)
(10.1051 0.0912687 0)
(10.068 0.0875029 0)
(10.025 0.0835199 0)
(9.97738 0.0793382 0)
(9.92661 0.0749572 0)
(9.87404 0.0703148 0)
(9.82107 0.0652469 0)
(9.76908 0.0593762 0)
(9.7195 0.0518151 0)
(9.67326 0.0403163 0)
(10.0006 0.0184396 0)
(10.0439 0.0828079 0)
(10.0871 0.102607 0)
(10.1229 0.107406 0)
(10.1466 0.104316 0)
(10.1618 0.100719 0)
(10.172 0.0978365 0)
(10.1791 0.0954388 0)
(10.1839 0.0931064 0)
(10.1868 0.0906414 0)
(10.1878 0.087983 0)
(10.1872 0.0851019 0)
(10.1852 0.0819407 0)
(10.1821 0.0783799 0)
(10.178 0.0741914 0)
(10.1733 0.0689418 0)
(10.1681 0.0618105 0)
(10.1616 0.051497 0)
(10.0005 0.015276 0)
(10.0336 0.0713868 0)
(10.0713 0.0926384 0)
(10.1032 0.0994319 0)
(10.1265 0.0986015 0)
(10.1434 0.0963952 0)
(10.1568 0.0943013 0)
(10.1682 0.0923966 0)
(10.1782 0.0904452 0)
(10.1871 0.0883122 0)
(10.1952 0.0859486 0)
(10.2025 0.0833212 0)
(10.2093 0.080366 0)
(10.2157 0.0769564 0)
(10.2218 0.0728656 0)
(10.2277 0.0677088 0)
(10.233 0.0608952 0)
(10.2369 0.051854 0)
(10.0005 0.0128065 0)
(10.0258 0.061381 0)
(10.0589 0.0829745 0)
(10.088 0.0913771 0)
(10.1105 0.0924207 0)
(10.1278 0.0913747 0)
(10.142 0.089907 0)
(10.1544 0.0883446 0)
(10.1657 0.0866149 0)
(10.1761 0.0846444 0)
(10.1859 0.0823976 0)
(10.1951 0.0798415 0)
(10.2038 0.0769113 0)
(10.2123 0.0734867 0)
(10.2205 0.0693671 0)
(10.2283 0.064254 0)
(10.2354 0.0577876 0)
(10.2411 0.0498166 0)
(10.0004 0.0107445 0)
(10.0198 0.052538 0)
(10.0482 0.0737392 0)
(10.0746 0.0832584 0)
(10.0963 0.0858538 0)
(10.1136 0.0858578 0)
(10.1282 0.0849793 0)
(10.1411 0.0837323 0)
(10.1528 0.0821878 0)
(10.1638 0.0803358 0)
(10.1741 0.078161 0)
(10.1839 0.0756363 0)
(10.1933 0.072703 0)
(10.2023 0.0692565 0)
(10.211 0.0651367 0)
(10.2192 0.0601384 0)
(10.2265 0.0540808 0)
(10.2325 0.047016 0)
(10.0004 0.00902408 0)
(10.0153 0.0448541 0)
(10.0392 0.0650707 0)
(10.0628 0.0751861 0)
(10.0832 0.0789719 0)
(10.1003 0.0798959 0)
(10.115 0.0795818 0)
(10.1281 0.0786536 0)
(10.1401 0.0772947 0)
(10.1513 0.0755558 0)
(10.1619 0.0734473 0)
(10.1719 0.0709543 0)
(10.1815 0.0680305 0)
(10.1906 0.0645942 0)
(10.1993 0.0605314 0)
(10.2074 0.0557205 0)
(10.2147 0.050102 0)
(10.2207 0.0438093 0)
(10.0003 0.00758328 0)
(10.0119 0.0382149 0)
(10.0319 0.0570585 0)
(10.0526 0.0673269 0)
(10.0715 0.071923 0)
(10.0879 0.073583 0)
(10.1024 0.0737717 0)
(10.1155 0.0731515 0)
(10.1276 0.0719806 0)
(10.1388 0.0703594 0)
(10.1495 0.0683249 0)
(10.1595 0.0658783 0)
(10.1691 0.0629908 0)
(10.1782 0.0596073 0)
(10.1868 0.0556589 0)
(10.1947 0.0510904 0)
(10.2018 0.0459158 0)
(10.2077 0.0402885 0)
(10.0003 0.00636932 0)
(10.0093 0.0324803 0)
(10.026 0.0497106 0)
(10.0441 0.0597868 0)
(10.0612 0.0648589 0)
(10.0767 0.0670516 0)
(10.0907 0.0676456 0)
(10.1036 0.0672948 0)
(10.1155 0.0662988 0)
(10.1266 0.064794 0)
(10.1372 0.0628408 0)
(10.1472 0.0604578 0)
(10.1566 0.0576355 0)
(10.1656 0.0543462 0)
(10.1739 0.0505597 0)
(10.1816 0.0462693 0)
(10.1885 0.041528 0)
(10.1944 0.0364814 0)
(10.0002 0.00534471 0)
(10.0074 0.0275133 0)
(10.0213 0.0429953 0)
(10.037 0.0526092 0)
(10.0525 0.057877 0)
(10.0669 0.0604138 0)
(10.0802 0.0613068 0)
(10.0926 0.061171 0)
(10.1042 0.0603235 0)
(10.1151 0.0589246 0)
(10.1254 0.0570544 0)
(10.1351 0.0547482 0)
(10.1444 0.0520156 0)
(10.1531 0.0488535 0)
(10.1611 0.0452628 0)
(10.1686 0.0412682 0)
(10.1752 0.0369399 0)
(10.181 0.0324052 0)
(10.0002 0.00454641 0)
(10.006 0.0233622 0)
(10.0176 0.0371131 0)
(10.0314 0.0460824 0)
(10.0454 0.0513119 0)
(10.0588 0.0540167 0)
(10.0714 0.0550987 0)
(10.0832 0.0551156 0)
(10.0943 0.0543826 0)
(10.1049 0.0530731 0)
(10.1148 0.0512817 0)
(10.1243 0.0490584 0)
(10.1332 0.0464295 0)
(10.1416 0.043412 0)
(10.1493 0.0400283 0)
(10.1565 0.0363207 0)
(10.1629 0.0323636 0)
(10.1685 0.0282647 0)
(10.0001 0.00380965 0)
(10.005 0.019978 0)
(10.0149 0.0321415 0)
(10.0271 0.0403935 0)
(10.0398 0.0454286 0)
(10.0523 0.0481643 0)
(10.0642 0.0493414 0)
(10.0755 0.0494543 0)
(10.0862 0.0488039 0)
(10.0964 0.0475674 0)
(10.106 0.0458487 0)
(10.1151 0.0437091 0)
(10.1237 0.0411879 0)
(10.1317 0.0383166 0)
(10.1392 0.035131 0)
(10.146 0.0316823 0)
(10.1522 0.0280427 0)
(10.1577 0.0243033 0)
(10.0001 0.00307729 0)
(10.0041 0.016541 0)
(10.0125 0.0269207 0)
(10.023 0.0342277 0)
(10.0344 0.0388739 0)
(10.0459 0.0415061 0)
(10.057 0.0426985 0)
(10.0677 0.0428664 0)
(10.0779 0.0422826 0)
(10.0876 0.0411193 0)
(10.0968 0.039485 0)
(10.1056 0.0374502 0)
(10.1138 0.0350652 0)
(10.1214 0.0323731 0)
(10.1286 0.0294192 0)
(10.1351 0.0262582 0)
(10.141 0.0229567 0)
(10.1464 0.0195896 0)
(10.0001 0.00235189 0)
(10.0034 0.0130847 0)
(10.0103 0.021512 0)
(10.0194 0.027639 0)
(10.0294 0.0316707 0)
(10.0398 0.0340258 0)
(10.0501 0.0351184 0)
(10.0601 0.0352746 0)
(10.0698 0.0347255 0)
(10.079 0.0336282 0)
(10.0877 0.0320886 0)
(10.096 0.0301815 0)
(10.1038 0.0279638 0)
(10.1111 0.0254855 0)
(10.1178 0.0227961 0)
(10.1241 0.0199492 0)
(10.1297 0.0170029 0)
(10.1349 0.0140167 0)
(10.0001 0.00163344 0)
(10.0027 0.00963255 0)
(10.0085 0.0159612 0)
(10.0162 0.0206747 0)
(10.025 0.0238463 0)
(10.0344 0.0257179 0)
(10.0438 0.026561 0)
(10.0531 0.0266094 0)
(10.0621 0.0260423 0)
(10.0708 0.0249903 0)
(10.079 0.0235483 0)
(10.0869 0.0217875 0)
(10.0942 0.0197652 0)
(10.1011 0.0175317 0)
(10.1075 0.0151352 0)
(10.1134 0.0126239 0)
(10.1188 0.0100455 0)
(10.1238 0.00744609 0)
(10.0001 0.000911528 0)
(10.0022 0.00616862 0)
(10.0071 0.0102629 0)
(10.0137 0.0133377 0)
(10.0214 0.0153972 0)
(10.0298 0.0165588 0)
(10.0384 0.0169763 0)
(10.047 0.0167949 0)
(10.0554 0.0161351 0)
(10.0635 0.0150912 0)
(10.0712 0.0137368 0)
(10.0786 0.0121307 0)
(10.0856 0.0103222 0)
(10.0921 0.00835554 0)
(10.0982 0.0062718 0)
(10.1038 0.00411012 0)
(10.109 0.00190754 0)
(10.1137 -0.000302238 0)
(10.0001 0.000155627 0)
(10.0019 0.00260855 0)
(10.0061 0.00430648 0)
(10.0119 0.00551404 0)
(10.0189 0.00621068 0)
(10.0265 0.00643202 0)
(10.0344 0.00623805 0)
(10.0423 0.0056921 0)
(10.0502 0.00485169 0)
(10.0578 0.00376628 0)
(10.0651 0.00247807 0)
(10.0721 0.00102396 0)
(10.0787 -0.000562688 0)
(10.0848 -0.00225083 0)
(10.0906 -0.00401114 0)
(10.096 -0.00581598 0)
(10.101 -0.00763976 0)
(10.1056 -0.0094598 0)
(10.0001 -0.000708064 0)
(10.0018 -0.00127098 0)
(10.0057 -0.00223988 0)
(10.0112 -0.00317431 0)
(10.0178 -0.00409581 0)
(10.025 -0.0050301 0)
(10.0325 -0.00600114 0)
(10.0401 -0.00702776 0)
(10.0476 -0.00812186 0)
(10.0548 -0.0092883 0)
(10.0618 -0.0105259 0)
(10.0685 -0.0118283 0)
(10.0748 -0.0131855 0)
(10.0807 -0.014585 0)
(10.0862 -0.0160127 0)
(10.0914 -0.0174541 0)
(10.0963 -0.0188952 0)
(10.1007 -0.0203231 0)
(10.0001 -0.00149357 0)
(10.002 -0.00546651 0)
(10.0062 -0.00929777 0)
(10.0121 -0.0124979 0)
(10.019 -0.0150974 0)
(10.0264 -0.0172 0)
(10.0341 -0.0189311 0)
(10.0417 -0.0204062 0)
(10.0492 -0.0217171 0)
(10.0564 -0.0229299 0)
(10.0633 -0.0240889 0)
(10.0698 -0.0252211 0)
(10.076 -0.0263409 0)
(10.0818 -0.0274545 0)
(10.0872 -0.0285623 0)
(10.0923 -0.0296617 0)
(10.097 -0.0307481 0)
(10.1014 -0.0318166 0)
(10.0001 -0.00227437 0)
(10.0024 -0.00912514 0)
(10.0074 -0.0153448 0)
(10.0141 -0.0203123 0)
(10.0218 -0.024115 0)
(10.0299 -0.0269722 0)
(10.0381 -0.0291314 0)
(10.0461 -0.0308083 0)
(10.0538 -0.0321681 0)
(10.0611 -0.033327 0)
(10.068 -0.0343623 0)
(10.0746 -0.0353231 0)
(10.0808 -0.0362386 0)
(10.0865 -0.0371255 0)
(10.092 -0.037992 0)
(10.097 -0.0388414 0)
(10.1018 -0.0396739 0)
(10.1062 -0.0404884 0)
(10.0001 -0.00314324 0)
(10.003 -0.0130382 0)
(10.0092 -0.0216454 0)
(10.0173 -0.0282013 0)
(10.0263 -0.0329387 0)
(10.0354 -0.0362674 0)
(10.0443 -0.0386052 0)
(10.0528 -0.0402873 0)
(10.0608 -0.041554 0)
(10.0684 -0.0425647 0)
(10.0755 -0.0434205 0)
(10.0821 -0.0441832 0)
(10.0883 -0.0448893 0)
(10.0941 -0.0455602 0)
(10.0996 -0.0462073 0)
(10.1047 -0.0468367 0)
(10.1094 -0.0474506 0)
(10.1138 -0.0480495 0)
(10.0002 -0.00414797 0)
(10.004 -0.0174401 0)
(10.012 -0.028474 0)
(10.022 -0.0364098 0)
(10.0325 -0.041769 0)
(10.0428 -0.0452544 0)
(10.0526 -0.0475095 0)
(10.0617 -0.0490034 0)
(10.0701 -0.0500461 0)
(10.0779 -0.0508271 0)
(10.0851 -0.0514576 0)
(10.0919 -0.0520012 0)
(10.0982 -0.052494 0)
(10.1041 -0.0529561 0)
(10.1095 -0.053399 0)
(10.1146 -0.0538286 0)
(10.1194 -0.0542475 0)
(10.1238 -0.0546563 0)
(10.0002 -0.00532064 0)
(10.0054 -0.0225465 0)
(10.016 -0.0360024 0)
(10.0283 -0.0450449 0)
(10.0407 -0.0506537 0)
(10.0524 -0.0539577 0)
(10.063 -0.0558713 0)
(10.0726 -0.0570008 0)
(10.0813 -0.0577093 0)
(10.0893 -0.0581967 0)
(10.0967 -0.0585681 0)
(10.1035 -0.0588776 0)
(10.1098 -0.0591534 0)
(10.1156 -0.0594107 0)
(10.121 -0.0596579 0)
(10.1261 -0.0598996 0)
(10.1308 -0.0601379 0)
(10.1351 -0.0603726 0)
(10.0002 -0.00663522 0)
(10.0073 -0.0285832 0)
(10.0213 -0.0443016 0)
(10.0364 -0.0541055 0)
(10.0509 -0.0595264 0)
(10.0638 -0.062296 0)
(10.0751 -0.063619 0)
(10.0851 -0.0642293 0)
(10.094 -0.0645167 0)
(10.102 -0.064666 0)
(10.1093 -0.0647578 0)
(10.1159 -0.0648256 0)
(10.1221 -0.0648833 0)
(10.1278 -0.064938 0)
(10.133 -0.0649942 0)
(10.1379 -0.0650549 0)
(10.1424 -0.0651214 0)
(10.1465 -0.0651926 0)
(10.0001 -0.00789139 0)
(10.0099 -0.035794 0)
(10.028 -0.0533314 0)
(10.0461 -0.0634701 0)
(10.0627 -0.0682054 0)
(10.0767 -0.0700915 0)
(10.0884 -0.070607 0)
(10.0985 -0.0705858 0)
(10.1072 -0.0704017 0)
(10.115 -0.0701931 0)
(10.122 -0.0699979 0)
(10.1283 -0.0698204 0)
(10.1341 -0.069657 0)
(10.1393 -0.0695057 0)
(10.1441 -0.0693677 0)
(10.1484 -0.0692454 0)
(10.1524 -0.0691408 0)
(10.1561 -0.0690515 0)
(9.99958 -0.00886478 0)
(10.0131 -0.0442289 0)
(10.036 -0.0629316 0)
(10.0574 -0.0729391 0)
(10.076 -0.0764946 0)
(10.0909 -0.0772034 0)
(10.1029 -0.0767452 0)
(10.1127 -0.0760045 0)
(10.1208 -0.0752973 0)
(10.1277 -0.0746926 0)
(10.1337 -0.0741758 0)
(10.1389 -0.0737194 0)
(10.1434 -0.073302 0)
(10.1474 -0.072913 0)
(10.1507 -0.0725504 0)
(10.1536 -0.0722169 0)
(10.1561 -0.0719171 0)
(10.1582 -0.07165 0)
(9.99619 -0.0021408 0)
(10.017 -0.0554167 0)
(10.0459 -0.0731776 0)
(10.0724 -0.0823352 0)
(10.0936 -0.0843003 0)
(10.1091 -0.0834916 0)
(10.1198 -0.0817901 0)
(10.127 -0.0801132 0)
(10.1317 -0.0787021 0)
(10.1344 -0.0775413 0)
(10.1356 -0.076556 0)
(10.1356 -0.0756819 0)
(10.1345 -0.0748768 0)
(10.1324 -0.0741189 0)
(10.1295 -0.0734011 0)
(10.1258 -0.0727248 0)
(10.1215 -0.0720998 0)
(10.1165 -0.0715361 0)
(9.99374 -0.0631274 0)
(10.0233 -0.0517899 0)
(10.0719 -0.0850663 0)
(10.1058 -0.0942396 0)
(10.1236 -0.0929033 0)
(10.1264 -0.0888864 0)
(10.1169 -0.0844798 0)
(10.0982 -0.0806056 0)
(10.0725 -0.0773717 0)
(10.0418 -0.0746446 0)
(10.0073 -0.0722651 0)
(9.96997 -0.0701139 0)
(9.93062 -0.0681149 0)
(9.8899 -0.0662275 0)
(9.84834 -0.0644332 0)
(9.8064 -0.0627288 0)
(9.76444 -0.0611265 0)
(9.72275 -0.0596585 0)
(9.85145 1.36808 0)
(10.1935 -0.419342 0)
(10.1386 -0.237363 0)
(10.0328 -0.146656 0)
(9.86743 -0.100446 0)
(9.66947 -0.0731195 0)
(9.4674 -0.0556141 0)
(9.27662 -0.0443753 0)
(9.10311 -0.0372707 0)
(8.94742 -0.0327758 0)
(8.8079 -0.0298507 0)
(8.68238 -0.0278296 0)
(8.56885 -0.0263104 0)
(8.46564 -0.0250679 0)
(8.37138 -0.0239831 0)
(8.28497 -0.0230009 0)
(8.2055 -0.0221091 0)
(8.13219 -0.0213626 0)
(0.00122985 -0.0056051 0)
(0.00703723 -0.00556596 0)
(0.0192204 -0.00809972 1.28809e-19)
(0.0300818 -0.00671777 0)
(0.0370742 -0.00402257 0)
(0.0397605 -0.00122611 0)
(0.0384746 0.00115212 0)
(0.0340613 0.00290559 0)
(0.0273082 0.00415348 -9.86931e-20)
(0.0188401 0.00507681 0)
(0.00908963 0.00579944 0)
(-0.00166462 0.00635392 0)
(-0.013294 0.00672515 0)
(-0.0257542 0.00703573 0)
(-0.0390047 0.00734262 0)
(-0.0530529 0.00766093 0)
(-0.0679375 0.00799708 1.33966e-19)
(-0.0836771 0.00835116 0)
(-0.100314 0.00872235 -5.74041e-20)
(-0.11787 0.00910421 5.32969e-20)
(-0.136374 0.00949399 0)
(-0.155854 0.00988806 0)
(-0.176298 0.0102771 0)
(-0.197716 0.0106599 0)
(-0.220104 0.0110336 0)
(-0.243438 0.0113901 0)
(-0.267709 0.0117281 -3.31179e-20)
(-0.292886 0.0120453 0)
(-0.318943 0.0123391 2.93115e-20)
(-0.345846 0.0126124 0)
(-0.373562 0.0128625 -2.6104e-20)
(-0.402055 0.0130884 0)
(-0.43128 0.0132907 0)
(-0.461212 0.013468 2.21971e-20)
(-0.491791 0.0136195 0)
(-0.523006 0.0137569 0)
(-0.554815 0.0138708 3.82799e-20)
(-0.587148 0.0139582 0)
(-0.620031 0.0140368 0)
(-0.653389 0.014091 3.34378e-20)
(-0.687237 0.0141342 0)
(-0.721482 0.0141513 1.53775e-20)
(-0.756134 0.0141622 0)
(-0.791198 0.0141639 -2.84308e-20)
(-0.826578 0.0141396 0)
(-0.862281 0.0141139 0)
(-0.898326 0.0140786 0)
(-0.934575 0.0140136 0)
(-0.971138 0.0139622 0)
(-1.00786 0.0138783 2.3063e-20)
(-1.04484 0.0138115 0)
(-1.08192 0.013713 0)
(-1.11923 0.0136348 0)
(-1.15659 0.0135166 0)
(-1.19402 0.0134152 0)
(-1.23158 0.0133415 0)
(-1.26911 0.0132321 1.88504e-20)
(-1.30663 0.0131489 0)
(-1.34413 0.0131065 -8.96459e-21)
(-1.38159 0.0130922 -1.75075e-20)
(-1.41894 0.0130835 0)
(-1.45615 0.0131109 1.67444e-20)
(-1.49321 0.0131648 0)
(-1.5301 0.0132263 -1.60808e-20)
(-1.5668 0.0132577 0)
(-1.60329 0.0131886 1.55085e-20)
(-1.63954 0.0128844 1.52526e-20)
(-1.67546 0.0121409 -1.50103e-20)
(-1.71077 0.0106304 0)
(-1.74525 0.00979409 0)
(-1.77925 0.00860987 1.42971e-20)
(-1.81258 0.00764201 0)
(-1.84547 0.00710622 0)
(-1.8774 0.0066251 -2.73461e-20)
(-1.90901 0.0126035 0)
(-1.94093 0.0168821 0)
(-1.97215 0.0183268 0)
(-2.00311 0.0171667 1.35463e-20)
(-2.03471 0.0160198 0)
(-2.05762 0.00697038 -2.67106e-20)
(-2.07731 0.0207365 1.31368e-20)
(-2.10023 0.0422797 0)
(-2.12537 0.0724094 -1.29573e-20)
(-2.16346 0.139692 -2.73275e-20)
(-2.18834 -0.0551415 -1.6253e-20)
(-2.18027 0.0048182 0)
(-2.20967 -0.00731709 0)
(-2.23212 -0.0100593 0)
(-2.25208 -0.0135699 0)
(-2.27152 -0.0138154 0)
(-2.29122 -0.0229356 -2.93532e-20)
(-2.3153 -0.0234056 0)
(-2.3339 -0.0493535 0)
(-2.33406 0.0424796 -1.12733e-20)
(-2.36268 -0.068465 0)
(-2.36213 0.104314 0)
(-2.37511 -0.0407305 2.58728e-20)
(-2.36713 -0.00192804 0)
(-2.38105 -0.0148353 0)
(-2.38687 -0.0327343 0)
(-2.39883 0.0812238 0)
(-2.39708 -0.00271953 0)
(-2.38947 -0.00124646 0)
(-2.3842 -0.00159733 0)
(-2.37815 -0.00200177 2.09186e-20)
(-2.3704 -0.00241804 0)
(-2.36111 -0.00287355 0)
(-2.35 -0.00330612 0)
(-2.33732 -0.00376602 1.81976e-20)
(-2.32282 -0.00419925 -1.7467e-20)
(-2.30664 -0.00463585 0)
(-2.28881 -0.00508235 1.59433e-20)
(-2.26929 -0.00550724 0)
(-2.24811 -0.00592456 0)
(-2.22529 -0.006336 1.34812e-20)
(-2.20087 -0.00675217 0)
(-2.17487 -0.00714507 0)
(-2.14729 -0.00752767 0)
(-2.11822 -0.00789718 0)
(-2.08765 -0.00825343 0)
(-2.05563 -0.00860044 0)
(-2.02223 -0.00895128 0)
(-1.98752 -0.00925369 -5.57596e-21)
(-1.95158 -0.00947976 0)
(-1.91453 -0.00959931 3.23644e-21)
(-1.8764 -0.00954589 0)
(-1.83744 -0.00925925 0)
(-1.7976 -0.00850316 6.02027e-22)
(-1.75654 -0.00718686 0)
(-1.71259 -0.00603255 0)
(-1.65756 -0.0177821 0)
(-1.60282 0.0129925 -1.32527e-20)
(-1.57081 0.000828016 0)
(-1.52969 -0.0107035 0)
(-1.48252 -0.00663675 0)
(-1.43043 -0.00208423 2.61144e-20)
(-1.38809 0.00275164 0)
(-1.33857 -0.010792 -1.66407e-20)
(-1.29257 0.00426875 1.9716e-20)
(-1.24293 -0.00970431 0)
(-1.19114 0.00309495 0)
(-1.1496 -0.00315493 -5.35344e-20)
(-1.10117 -0.00755112 0)
(-1.04763 0.00390276 0)
(-1.00037 0.000288016 0)
(-0.952997 -0.00113973 -7.70356e-20)
(-0.905174 -0.00361255 0)
(-0.85941 -0.00211474 0)
(-0.810674 -0.00482587 0)
(-0.761343 0.00442865 0)
(-0.715908 0.00119575 0)
(-0.671164 0.00230456 1.23577e-19)
(-0.625959 0.000109621 0)
(-0.581383 -0.000454581 1.40478e-19)
(-0.533944 0.00212649 0)
(-0.48969 0.00203119 1.6135e-19)
(-0.44777 0.00238051 0)
(-0.403783 0.00359878 0)
(-0.361574 0.00412539 0)
(-0.318864 0.00348112 0)
(-0.275417 0.00317843 0)
(-0.231371 0.00306083 0)
(-0.186895 0.00280495 0)
(-0.141927 0.00240734 0)
(-0.0957029 0.00284348 -5.95002e-19)
(-0.0496393 0.003456 0)
(-0.00448469 0.00380331 0)
(0.0292551 0.00208542 6.12729e-19)
(0.0620963 0.0107009 0)
(0.104036 0.0140065 0)
(0.151223 0.0147504 5.57249e-19)
(0.202173 0.0148831 0)
(0.257205 0.015403 -5.0341e-19)
(0.316024 0.0164079 0)
(0.383229 0.0164866 0)
(0.476398 0.0177875 0)
(0.623323 0.100039 0)
(0.707501 0.0112183 0)
(0.765439 -0.00307344 0)
(0.801853 -0.0382229 0)
(0.00155236 -0.0227828 -4.5631e-19)
(0.0110012 -0.0273931 -4.88287e-20)
(0.0148412 -0.0215058 2.64933e-20)
(0.0148752 -0.0124412 0)
(0.0120354 -0.0029098 0)
(0.00678608 0.00592162 1.59262e-20)
(-0.00067307 0.0135438 -2.99959e-20)
(-0.0102176 0.0198108 0)
(-0.0217064 0.0247958 4.09828e-20)
(-0.034959 0.0287024 -1.13201e-23)
(-0.0497783 0.0317815 0)
(-0.0659763 0.0342726 2.45793e-20)
(-0.0833739 0.036374 0)
(-0.10184 0.0382378 0)
(-0.121273 0.0399693 0)
(-0.141594 0.0416318 0)
(-0.162749 0.0432605 -4.21091e-20)
(-0.1847 0.0448719 0)
(-0.20741 0.0464666 0)
(-0.230855 0.0480416 -3.85727e-20)
(-0.255005 0.0495862 0)
(-0.279836 0.0510901 -3.6421e-20)
(-0.305322 0.0525412 -1.77194e-20)
(-0.331433 0.0539281 -3.44151e-20)
(-0.35814 0.0552418 3.34544e-20)
(-0.385416 0.0564761 1.62483e-20)
(-0.413236 0.0576282 4.74612e-20)
(-0.441571 0.0586942 0)
(-0.470387 0.0596695 1.49796e-20)
(-0.499663 0.060556 -1.45753e-20)
(-0.529374 0.0613544 -2.83692e-20)
(-0.559497 0.0620675 1.38067e-20)
(-0.590006 0.0626992 -1.34446e-20)
(-0.62089 0.063254 0)
(-0.65212 0.0637362 -1.27603e-20)
(-0.68368 0.0641488 0)
(-0.715558 0.064499 0)
(-0.747733 0.0647896 1.1828e-20)
(-0.780194 0.06502 0)
(-0.812925 0.065199 1.12657e-20)
(-0.845911 0.0653236 0)
(-0.879145 0.0654021 0)
(-0.912602 0.0654335 -1.04701e-20)
(-0.946281 0.06542 0)
(-0.980159 0.0653625 0)
(-1.01422 0.0652651 2.94367e-20)
(-1.04846 0.0651233 0)
(-1.08285 0.0649451 0)
(-1.11738 0.0647224 9.21842e-21)
(-1.15204 0.0644659 -1.80329e-20)
(-1.1868 0.0641642 3.07031e-23)
(-1.22165 0.0638267 0)
(-1.25657 0.0634437 -3.39819e-20)
(-1.29155 0.0630264 -1.66983e-20)
(-1.32655 0.0625673 0)
(-1.36157 0.0620591 -1.60819e-20)
(-1.39657 0.061518 1.57886e-20)
(-1.43155 0.0609383 0)
(-1.46647 0.0603133 1.52312e-20)
(-1.50131 0.0596569 -4.48426e-20)
(-1.53606 0.0589727 2.93661e-20)
(-1.57069 0.0582615 0)
(-1.60516 0.0575333 2.84407e-20)
(-1.63945 0.056792 -4.19853e-20)
(-1.67351 0.0560287 -1.37994e-20)
(-1.70728 0.0552324 2.71449e-20)
(-1.74073 0.0543645 1.34011e-20)
(-1.7738 0.0533611 2.63715e-20)
(-1.80656 0.0521804 -2.599e-20)
(-1.83906 0.0509794 0)
(-1.87122 0.0497256 1.26441e-20)
(-1.9031 0.0483982 2.49037e-20)
(-1.9347 0.0469607 0)
(-1.96625 0.045589 0)
(-1.99711 0.0446258 0)
(-2.02706 0.0435086 2.43864e-20)
(-2.05648 0.0426046 0)
(-2.08466 0.0412708 -2.46507e-20)
(-2.11131 0.0383836 -1.22653e-20)
(-2.13921 0.0346863 0)
(-2.16652 0.0346485 0)
(-2.19156 0.0345217 0)
(-2.21435 0.0340897 -1.19011e-20)
(-2.23029 0.0339626 3.73212e-20)
(-2.25087 0.022333 0)
(-2.2787 0.0257785 -2.6896e-20)
(-2.29482 0.0256673 0)
(-2.31112 0.0236184 0)
(-2.32693 0.0205377 5.07768e-20)
(-2.34098 0.0189645 0)
(-2.35309 0.0175203 -2.39669e-20)
(-2.362 0.0164116 2.25443e-20)
(-2.37068 0.0116613 0)
(-2.38207 0.01414 0)
(-2.38532 0.00734211 0)
(-2.39355 0.00993952 0)
(-2.39742 0.0018357 -1.91621e-20)
(-2.40368 0.0055937 0)
(-2.40169 0.00419738 3.65052e-20)
(-2.40001 0.000740827 0)
(-2.39448 2.12207e-05 0)
(-2.39196 -0.00526637 1.60187e-20)
(-2.38739 -0.00622336 0)
(-2.38005 -0.00768721 0)
(-2.37098 -0.00936357 0)
(-2.36022 -0.0110971 -4.17139e-20)
(-2.34778 -0.0128498 0)
(-2.33363 -0.0145829 1.27715e-20)
(-2.31778 -0.0163018 2.44744e-20)
(-2.30022 -0.0179847 1.16216e-20)
(-2.28096 -0.0196328 -1.10342e-20)
(-2.26002 -0.0212517 1.05278e-20)
(-2.2374 -0.0228169 9.83311e-21)
(-2.21311 -0.0243363 9.21855e-21)
(-2.18717 -0.0258047 -1.72997e-20)
(-2.15962 -0.0272285 0)
(-2.13049 -0.0285842 0)
(-2.09979 -0.0298784 0)
(-2.06759 -0.0311067 1.21431e-20)
(-2.03388 -0.0322652 0)
(-1.99874 -0.0333518 0)
(-1.9622 -0.0343668 -3.96817e-21)
(-1.92434 -0.0352964 -6.68988e-21)
(-1.8852 -0.0361566 0)
(-1.84483 -0.0369354 0)
(-1.8033 -0.0376184 0)
(-1.76057 -0.0382262 0)
(-1.7167 -0.0388188 -7.41818e-22)
(-1.67169 -0.0396624 0)
(-1.62605 -0.0414432 0)
(-1.58226 -0.0439048 0)
(-1.53809 -0.0386636 0)
(-1.48663 -0.0383514 0)
(-1.43682 -0.0410573 0)
(-1.38759 -0.0425717 -6.45165e-21)
(-1.33915 -0.0425168 -1.55181e-22)
(-1.28706 -0.0407667 0)
(-1.23618 -0.0427962 0)
(-1.18425 -0.0410436 1.8449e-22)
(-1.13235 -0.0432602 2.29135e-20)
(-1.08093 -0.0411795 -2.69699e-20)
(-1.02594 -0.0403593 -2.85806e-20)
(-0.97324 -0.0415624 -2.85554e-20)
(-0.921932 -0.0411523 0)
(-0.868729 -0.0403565 3.47103e-20)
(-0.815209 -0.0396384 0)
(-0.762282 -0.0397799 -4.1299e-20)
(-0.708384 -0.0387082 0)
(-0.656117 -0.0389499 8.24817e-20)
(-0.604437 -0.037891 -4.53231e-20)
(-0.551845 -0.0370567 0)
(-0.499447 -0.0362798 0)
(-0.447292 -0.0360755 5.67839e-20)
(-0.395059 -0.0355183 5.81913e-20)
(-0.344219 -0.0355037 5.96957e-20)
(-0.292465 -0.0344926 6.37164e-20)
(-0.241106 -0.0338144 1.36641e-19)
(-0.190297 -0.0334959 0)
(-0.138982 -0.0329274 0)
(-0.0875818 -0.0327704 1.57715e-19)
(-0.0361001 -0.0326932 0)
(0.0156494 -0.0325171 8.32783e-20)
(0.0676626 -0.0323009 1.6821e-19)
(0.120076 -0.0321595 0)
(0.172804 -0.0319636 0)
(0.225818 -0.0315389 8.55036e-20)
(0.279131 -0.0309403 8.62957e-20)
(0.333153 -0.0306738 0)
(0.387847 -0.0290979 -2.14766e-19)
(0.443044 -0.029625 0)
(0.498981 -0.03056 2.12721e-19)
(0.556393 -0.0312205 0)
(0.615763 -0.0316466 -1.03185e-19)
(0.677421 -0.0319289 2.01527e-19)
(0.741582 -0.0329238 0)
(0.802019 -0.0378539 0)
(0.854975 -0.027313 -1.15175e-19)
(0.915118 -0.0287848 0)
(0.970974 -0.0211614 0)
(1.021 -0.0098151 -8.32901e-20)
(0.000383805 -0.0297372 4.18775e-19)
(0.00161056 -0.0320444 2.71901e-19)
(-0.00181834 -0.0178255 6.9171e-20)
(-0.00764216 -0.00327611 -1.03589e-23)
(-0.0152266 0.0104424 4.13429e-20)
(-0.024298 0.022909 -3.65414e-20)
(-0.0347565 0.0339086 6.72003e-20)
(-0.0465824 0.0433769 -3.16235e-20)
(-0.0597666 0.0513711 0)
(-0.0742897 0.0580461 -2.90591e-20)
(-0.0901004 0.0636107 0)
(-0.107121 0.06829 0)
(-0.125262 0.0723 -2.65444e-20)
(-0.144425 0.0758222 0)
(-0.164519 0.0790008 -5.03718e-20)
(-0.185451 0.0819347 0)
(-0.207152 0.0846957 -2.39545e-20)
(-0.22955 0.0873184 2.33705e-20)
(-0.252595 0.0898253 0)
(-0.276237 0.0922223 -1.18218e-23)
(-0.300436 0.0945097 0)
(-0.325156 0.0966822 2.12028e-20)
(-0.350362 0.0987327 0)
(-0.376031 0.100658 -6.06631e-20)
(-0.40213 0.102451 1.97546e-20)
(-0.428642 0.10411 -1.92738e-20)
(-0.455543 0.105632 0)
(-0.482811 0.107016 -1.84004e-20)
(-0.51043 0.108266 1.79752e-20)
(-0.538381 0.109386 1.17979e-23)
(-0.566654 0.110382 1.71744e-20)
(-0.595232 0.111257 -1.67873e-20)
(-0.624103 0.112019 -3.28211e-20)
(-0.653261 0.112674 0)
(-0.682689 0.113231 -1.56955e-20)
(-0.712378 0.113689 3.06866e-20)
(-0.742323 0.114061 3.00296e-20)
(-0.772509 0.11435 2.94175e-20)
(-0.802936 0.114561 2.87783e-20)
(-0.833586 0.114699 2.81835e-20)
(-0.864454 0.114764 2.76107e-20)
(-0.89553 0.114761 2.70563e-20)
(-0.926805 0.114693 0)
(-0.95827 0.114557 2.60027e-20)
(-0.989914 0.11436 0)
(-1.02172 0.114098 2.4976e-23)
(-1.05369 0.113776 0)
(-1.08579 0.113393 0)
(-1.11802 0.112947 0)
(-1.15037 0.112437 0)
(-1.18282 0.111865 0)
(-1.21534 0.111231 0)
(-1.24794 0.110532 2.20542e-20)
(-1.28058 0.109769 -2.16812e-20)
(-1.31325 0.108938 2.13212e-20)
(-1.34592 0.108041 4.19588e-20)
(-1.37859 0.107081 0)
(-1.41122 0.106052 -2.03163e-20)
(-1.4438 0.104957 -1.99933e-20)
(-1.47629 0.103801 0)
(-1.50868 0.102585 0)
(-1.54093 0.101314 0)
(-1.573 0.0999887 3.75794e-20)
(-1.60487 0.0986034 -1.85345e-20)
(-1.63648 0.0971553 -1.82782e-20)
(-1.66782 0.0956244 -1.8017e-20)
(-1.69885 0.093987 -1.78163e-20)
(-1.72957 0.0922182 0)
(-1.76001 0.0903141 -1.73983e-20)
(-1.79017 0.0883047 -1.71939e-20)
(-1.82001 0.0861827 -1.69646e-20)
(-1.84949 0.0839478 -1.67951e-20)
(-1.87855 0.0816459 0)
(-1.90707 0.0794427 0)
(-1.9347 0.0774105 0)
(-1.96128 0.0752885 4.87863e-20)
(-1.98686 0.0729383 3.23257e-20)
(-2.01146 0.0701869 0)
(-2.03546 0.0670415 0)
(-2.05935 0.0641926 0)
(-2.08214 0.0622563 0)
(-2.10305 0.0604246 0)
(-2.12221 0.0579677 1.44651e-20)
(-2.13991 0.0541039 -2.87847e-20)
(-2.15815 0.0483289 1.43127e-20)
(-2.1768 0.044791 -1.42497e-20)
(-2.19294 0.0419207 0)
(-2.20779 0.0385745 0)
(-2.2216 0.0352484 0)
(-2.23381 0.0323443 2.66626e-20)
(-2.24435 0.0294026 0)
(-2.25322 0.0262073 2.53031e-20)
(-2.26099 0.022269 0)
(-2.26791 0.0190661 1.28096e-23)
(-2.27312 0.0149498 0)
(-2.27779 0.0116805 2.23047e-20)
(-2.28115 0.00776957 -2.19498e-20)
(-2.28243 0.00544167 2.15312e-20)
(-2.28075 0.00246125 0)
(-2.27761 -0.00121851 -4.03037e-20)
(-2.27348 -0.00519953 1.94929e-20)
(-2.26875 -0.00939802 2.96713e-23)
(-2.26244 -0.0126269 0)
(-2.25419 -0.015712 1.75538e-20)
(-2.24418 -0.0188268 0)
(-2.23249 -0.0219528 0)
(-2.21914 -0.025066 0)
(-2.20413 -0.028144 0)
(-2.18746 -0.0311786 1.42259e-20)
(-2.16914 -0.0341572 0)
(-2.14917 -0.0370711 1.2883e-20)
(-2.12756 -0.0399175 0)
(-2.10431 -0.0426837 0)
(-2.07945 -0.0453668 2.15e-20)
(-2.05299 -0.0479604 -2.00471e-20)
(-2.02497 -0.0504587 0)
(-1.99539 -0.0528513 0)
(-1.96429 -0.0551337 2.33102e-20)
(-1.93173 -0.0572974 -1.4063e-20)
(-1.89769 -0.0593415 0)
(-1.86226 -0.0612603 1.0983e-20)
(-1.82544 -0.0630523 -1.40591e-20)
(-1.78733 -0.0647136 1.16904e-20)
(-1.74794 -0.0662562 -3.05345e-21)
(-1.70732 -0.0676829 -2.2443e-21)
(-1.66552 -0.0690055 -3.01867e-21)
(-1.62253 -0.0702596 0)
(-1.5784 -0.0715097 -5.75508e-22)
(-1.53315 -0.0729111 0)
(-1.48714 -0.0746807 0)
(-1.44105 -0.0762545 5.43026e-21)
(-1.39388 -0.0750219 -7.52069e-21)
(-1.34365 -0.0743676 0)
(-1.29355 -0.0753695 1.04516e-20)
(-1.24372 -0.076696 0)
(-1.19374 -0.0774326 0)
(-1.14218 -0.0767246 1.5805e-20)
(-1.09047 -0.0772307 0)
(-1.0384 -0.0768071 3.42774e-22)
(-0.985927 -0.0773447 0)
(-0.933576 -0.0768089 2.25035e-20)
(-0.879854 -0.0754397 -2.40872e-20)
(-0.826879 -0.0754761 0)
(-0.774499 -0.0756088 0)
(-0.72106 -0.0747864 -2.95979e-20)
(-0.66729 -0.073978 3.16483e-20)
(-0.613914 -0.0732225 0)
(-0.560527 -0.0717849 0)
(-0.507868 -0.0712308 7.07258e-20)
(-0.455344 -0.0707785 3.7698e-20)
(-0.402009 -0.0696664 0)
(-0.348515 -0.0687459 4.23937e-20)
(-0.295481 -0.0678387 -3.23556e-22)
(-0.242786 -0.0667693 4.53407e-20)
(-0.190689 -0.06644 4.6827e-20)
(-0.138104 -0.0654157 -3.46525e-22)
(-0.0853348 -0.0645308 0)
(-0.0328501 -0.0639783 0)
(0.0198934 -0.0634083 -5.46594e-20)
(0.0726458 -0.0629831 0)
(0.125335 -0.0627034 0)
(0.178156 -0.0624526 1.16555e-19)
(0.23121 -0.0622137 -1.18475e-19)
(0.284574 -0.0619865 0)
(0.338271 -0.0616975 0)
(0.392446 -0.0612293 -6.22047e-20)
(0.447297 -0.0606766 0)
(0.503606 -0.0604595 0)
(0.561699 -0.0596523 6.95867e-20)
(0.619413 -0.0601679 0)
(0.677118 -0.0609824 0)
(0.735554 -0.0617827 2.13143e-19)
(0.794991 -0.0624413 -7.08227e-20)
(0.855757 -0.063039 -1.40081e-19)
(0.917352 -0.0639517 1.29956e-22)
(0.976433 -0.0652824 0)
(1.02899 -0.0564329 0)
(1.08407 -0.0542741 0)
(1.14071 -0.0457668 0)
(1.19702 -0.0293497 0)
(-0.00086041 -0.0246521 3.97601e-19)
(-0.00645848 -0.0208744 0)
(-0.015245 -0.00229531 0)
(-0.0253698 0.0151195 -7.68622e-20)
(-0.0363609 0.0311385 0)
(-0.0481494 0.0456861 0)
(-0.0607443 0.0587157 2.50979e-20)
(-0.0741873 0.0702246 -4.69591e-20)
(-0.0885304 0.0802695 0)
(-0.10381 0.0889605 0)
(-0.120045 0.0964553 0)
(-0.13722 0.10293 4.01671e-20)
(-0.155301 0.108568 -1.95369e-20)
(-0.174236 0.113538 0)
(-0.193959 0.117982 -3.71174e-20)
(-0.214403 0.122015 0)
(-0.235503 0.125722 -3.53515e-20)
(-0.257193 0.129157 -6.90604e-20)
(-0.27942 0.132361 3.37302e-20)
(-0.302136 0.135358 0)
(-0.325301 0.13816 0)
(-0.348878 0.140773 -3.1481e-20)
(-0.372836 0.143205 0)
(-0.397152 0.145452 0)
(-0.421798 0.147517 -2.94198e-20)
(-0.446761 0.149407 0)
(-0.472025 0.15112 5.6284e-20)
(-0.497573 0.152667 0)
(-0.523398 0.15405 0)
(-0.549487 0.155277 8.87769e-24)
(-0.575836 0.156356 0)
(-0.602434 0.157297 -2.52419e-20)
(-0.629273 0.158104 0)
(-0.656353 0.158787 -2.4212e-20)
(-0.683663 0.159354 0)
(-0.711198 0.15981 2.32273e-20)
(-0.738955 0.160162 0)
(-0.766924 0.160418 0)
(-0.795107 0.160581 0)
(-0.823491 0.160656 0)
(-0.852071 0.160644 2.10567e-20)
(-0.88084 0.16055 -2.06507e-20)
(-0.909791 0.160374 0)
(-0.938917 0.160118 1.98967e-20)
(-0.96821 0.15978 1.95375e-20)
(-0.997656 0.159363 3.83901e-20)
(-1.02725 0.158867 1.88536e-20)
(-1.05697 0.158291 1.8528e-20)
(-1.08681 0.157632 0)
(-1.11677 0.15689 0)
(-1.14681 0.156065 -1.7598e-20)
(-1.17693 0.155155 0)
(-1.20712 0.154157 -1.70541e-20)
(-1.23735 0.153071 0)
(-1.2676 0.151895 4.95408e-20)
(-1.29786 0.150627 1.62656e-20)
(-1.32811 0.149266 0)
(-1.35832 0.14781 0)
(-1.38847 0.146262 -3.10516e-20)
(-1.41853 0.14462 0)
(-1.44847 0.142884 3.01456e-20)
(-1.47827 0.141056 0)
(-1.50789 0.139136 0)
(-1.53728 0.137124 -2.89318e-20)