/*--------------------------------*- C++ -*----------------------------------*\
  =========                 |
  \\      /  F ield         | OpenFOAM: The Open Source CFD Toolbox
   \\    /   O peration     | Website:  https://openfoam.org
    \\  /    A nd           | Version:  7
     \\/     M anipulation  |
\*---------------------------------------------------------------------------*/
FoamFile
{
    version     2.0;
    format      ascii;
    class       volScalarField;
    location    "100";
    object      epsilon;
}
// * * * * * * * * * * * * * * * * * * * * * * * * * * * * * * * * * * * * * //

dimensions      [0 2 -3 0 0 0 0];

internalField   nonuniform List<scalar> 
48900
(
215.694
970.775
838.523
844.212
995.915
1223.99
1418.24
1549.13
1628.12
1675.17
1705.27
1726.62
1743.4
1757.67
1770.15
1780.98
1790.36
1796.5
20.5293
211.445
289.562
410.958
614.842
876.608
1133.95
1348.83
1514.69
1639.68
1734.02
1806.36
1862.04
1904.96
1937.78
1962.33
1979.74
1990.05
14.6956
38.6179
60.1803
79.5186
99.89
124.423
153.564
186.065
220.45
255.687
291.238
326.902
362.582
398.157
433.405
467.998
501.428
533.082
14.6753
18.7182
25.1974
31.5006
37.4377
43.2527
49.1893
55.323
61.6114
67.9794
74.381
80.8017
87.2568
93.7794
100.402
107.155
114.038
121.046
14.7801
15.3142
17.2248
19.5983
22.0072
24.3389
26.5924
28.7872
30.9314
33.0224
35.0538
37.0219
38.9264
40.7703
42.5588
44.2962
45.9837
47.6239
14.8067
14.7485
15.0874
15.8725
16.84
17.8641
18.8876
19.8897
20.8622
21.8012
22.704
23.5685
24.3939
25.1802
25.9278
26.6368
27.306
27.9328
14.8117
14.6518
14.5998
14.7063
14.9875
15.364
15.7902
16.2375
16.6896
17.137
17.5738
17.9965
18.4027
18.7911
19.1607
19.5106
19.8391
20.142
14.8115
14.6427
14.4976
14.4069
14.3889
14.4365
14.543
14.6846
14.85
15.0288
15.2144
15.4022
15.5886
15.7715
15.9489
16.1196
16.2818
16.4322
14.8111
14.641
14.4822
14.3411
14.2262
14.1434
14.0942
14.0739
14.0784
14.101
14.138
14.1852
14.2391
14.2977
14.359
14.4213
14.4832
14.5422
14.8109
14.6395
14.4787
14.3285
14.1904
14.0666
13.959
13.8684
13.7944
13.7352
13.6891
13.6545
13.6289
13.6111
13.5995
13.5928
13.5902
13.5908
14.8107
14.6384
14.4765
14.3246
14.1819
14.0484
13.9243
13.8102
13.706
13.6118
13.5272
13.4514
13.3839
13.3236
13.27
13.2221
13.1792
13.1401
14.8106
14.6376
14.4751
14.3222
14.1783
14.0428
13.915
13.7949
13.6821
13.5766
13.4782
13.3865
13.3014
13.2223
13.149
13.0809
13.0176
12.9586
14.8105
14.6372
14.4741
14.3206
14.1761
14.0398
13.9111
13.7895
13.6745
13.5659
13.4634
13.3666
13.2754
13.1894
13.1083
13.032
12.96
12.8921
14.8105
14.6368
14.4733
14.3193
14.1743
14.0374
13.9082
13.7859
13.6702
13.5606
13.4568
13.3583
13.2649
13.1764
13.0924
13.0127
12.937
12.8652
14.8104
14.6364
14.4726
14.3183
14.1728
14.0355
13.9059
13.7832
13.6671
13.5571
13.4528
13.3538
13.2598
13.1706
13.0858
13.0051
12.9284
12.8554
14.8104
14.6362
14.4721
14.3174
14.1717
14.0341
13.9041
13.7811
13.6647
13.5545
13.4499
13.3507
13.2566
13.1671
13.0821
13.0013
12.9244
12.8512
14.8104
14.636
14.4717
14.3169
14.1708
14.033
13.9028
13.7796
13.6631
13.5526
13.448
13.3487
13.2544
13.1649
13.0799
12.999
12.9222
12.8491
14.8103
14.6359
14.4715
14.3165
14.1703
14.0323
13.902
13.7787
13.6621
13.5516
13.4469
13.3475
13.2533
13.1638
13.0788
12.9981
12.9213
12.8484
14.8103
14.6358
14.4714
14.3163
14.1701
14.0321
13.9018
13.7785
13.6619
13.5514
13.4468
13.3475
13.2534
13.164
13.0792
12.9985
12.9219
12.8491
14.8103
14.6359
14.4715
14.3166
14.1705
14.0326
13.9024
13.7793
13.6629
13.5526
13.4481
13.3491
13.2551
13.1659
13.0812
13.0008
12.9244
12.8518
14.8104
14.636
14.4718
14.3171
14.1712
14.0336
13.9037
13.7809
13.6647
13.5547
13.4504
13.3516
13.2579
13.1689
13.0845
13.0043
12.9282
12.8558
14.8104
14.6362
14.4723
14.3179
14.1725
14.0353
13.9058
13.7834
13.6676
13.5581
13.4543
13.3561
13.263
13.1749
13.0913
13.0122
12.9372
12.8661
14.8105
14.6366
14.4731
14.3194
14.1746
14.0381
13.9096
13.7885
13.6746
13.5676
13.4673
13.3733
13.2855
13.2034
13.1267
13.0551
12.9883
12.9259
14.8106
14.6373
14.4745
14.3218
14.1793
14.0475
13.9273
13.8189
13.7224
13.6371
13.5622
13.4968
13.4398
13.3902
13.3471
13.3096
13.2771
13.249
14.8103
14.638
14.4777
14.3365
14.2222
14.1412
14.0899
14.0658
14.0648
14.0786
14.106
14.1428
14.1863
14.2346
14.2862
14.34
14.3952
14.4514
14.8048
14.6393
14.5322
14.5367
14.645
14.8401
15.0798
15.3444
15.6204
15.8999
16.1787
16.4544
16.7254
16.9905
17.2488
17.4999
17.7435
17.98
14.7567
14.7812
15.2358
16.0948
17.0815
18.0805
19.0527
19.9926
20.9067
21.8018
22.6821
23.5486
24.4001
25.2345
26.0496
26.8437
27.6159
28.3668
14.6511
16.6908
20.4522
24.0928
27.3554
30.373
33.3202
36.3288
39.4666
42.7444
46.1392
49.6126
53.1245
56.6405
60.1343
63.5882
66.9918
70.341
25.2556
36.7606
52.7189
64.3113
75.4172
88.8408
105.582
125.859
149.048
174.124
200.046
225.962
251.276
275.631
298.849
320.874
341.716
361.425
660.178
256.956
290.727
361.492
482.374
656.124
857.958
1056.65
1229.67
1368.23
1473.44
1550.89
1606.97
1647.24
1676.01
1696.44
1710.76
1720.61
9.80638
5.0412
8.71939
11.2127
13.8174
17.4741
22.983
30.2153
38.36
46.6464
54.5901
61.9253
68.6152
74.6601
80.1361
85.1262
89.6666
93.8378
97.6426
101.193
104.551
107.731
110.8
113.765
116.627
119.434
122.173
124.839
127.431
129.941
132.359
134.674
136.869
138.926
140.846
142.553
144.038
145.295
146.244
146.935
147.386
147.829
148.448
149.663
151.579
649.05
668.114
685.07
702.604
720.711
738.325
755.785
773.147
791.362
811.406
831.655
847.996
863.741
878.192
882.552
878.273
876.998
899.249
896.514
879.253
872.051
879.554
873.681
844.688
842.488
820.476
809.473
803.593
791.47
766.856
758.263
782.174
833.426
824.312
819.186
790.437
781
835.9
775.975
795.097
756.162
756.624
764.017
170.084
167.525
174.292
825.354
174.919
172.323
164.45
156.232
155.389
850.62
801.501
179.845
172.94
162.49
162.749
183.728
184.633
181.644
178.403
175.162
171.946
168.75
165.598
162.408
159.282
156.177
153.103
150.024
147.031
144.074
141.163
138.216
135.078
131.926
128.88
125.867
122.852
119.839
116.889
114.02
111.266
108.531
105.894
103.339
100.892
98.5675
96.3732
94.36
92.5082
90.8387
89.3189
87.9081
86.5794
85.2524
83.8873
82.4325
80.8326
79.042
77.0448
74.8293
72.4065
69.8175
67.1369
64.4356
61.8012
59.347
57.1345
55.2122
53.5926
52.2716
51.2208
50.3965
49.7621
49.3135
48.9925
48.7214
48.5404
48.4098
48.3559
48.5846
48.8588
49.1852
49.3023
49.335
49.7872
50.1987
50.414
50.5157
50.99
51.9454
52.7818
53.7679
38.1317
11.0899
11.5685
13.6071
16.9658
21.7998
27.9405
34.838
41.9137
48.7042
54.8764
60.2604
64.7982
68.5294
71.5889
74.1137
76.2278
78.0396
79.6383
81.0944
82.4634
83.7868
85.0896
86.3885
87.6936
89.0104
90.3364
91.6749
93.0629
94.5104
96.0326
97.6473
99.379
101.261
103.341
105.682
108.365
111.499
115.257
119.821
125.548
132.637
141.422
151.509
161.294
166.323
169.381
172.251
175.171
177.931
180.608
183.122
185.693
188.706
191.656
194.497
197.303
200.327
203.431
206.499
208.407
209.613
211.002
212.345
212.941
213.317
213.307
212.516
211.647
210.573
208.763
207.072
205.047
203.24
201.848
201.571
201.154
200.506
196.502
193.204
190.784
192.81
198.355
198.547
194.283
188.889
179.021
163.059
143.736
146.219
162.362
164.093
128.245
121.698
122.577
128.534
143.4
177.193
167.44
117.82
107.885
106.565
110.321
123.242
113.17
101.199
98.1659
96.0028
93.9497
91.9262
89.9275
87.9544
86.0116
84.0991
82.2202
80.3738
78.5661
76.7944
75.06
73.3553
71.6579
69.9754
68.3275
66.7057
65.0939
63.4944
61.9055
60.3107
58.7476
57.2077
55.6856
54.1996
52.7585
51.3697
50.0437
48.795
47.6298
46.5519
45.5596
44.6404
43.78
42.9573
42.1535
41.3474
40.5257
39.6762
38.7961
37.8907
36.9739
36.0668
35.1975
34.3924
33.6823
33.0904
32.6329
32.3146
32.129
32.0653
32.0886
32.1953
32.3649
32.5848
32.8381
33.1122
33.4043
33.714
34.0369
34.4141
34.8407
35.2895
35.7328
36.1545
36.6389
37.1777
37.7026
38.2221
38.8535
39.6805
40.8049
42.675
75.0853
22.0364
21.1687
23.2991
27.0553
32.0383
37.7381
43.5342
48.9203
53.6159
57.5356
60.7529
63.351
65.4772
67.2858
68.8931
70.3886
71.8374
73.2823
74.7502
76.2567
77.8106
79.4167
81.0778
82.7951
84.5757
86.4256
88.3457
90.341
92.408
94.5795
96.8761
99.3199
101.922
104.704
107.691
110.871
114.229
117.779
121.478
125.273
129.029
132.604
135.842
138.675
141.233
143.727
146.193
148.671
151.18
153.733
156.337
158.986
161.648
164.301
166.935
169.535
172.067
174.471
176.694
178.745
180.625
182.296
183.723
184.876
185.764
186.259
186.41
186.67
186.824
186.536
185.624
184.427
183.068
181.623
180.095
178.307
176.016
173.181
170.275
167.581
165.35
163.237
160.77
157.786
154.454
150.257
145.34
141.204
139.186
137.709
133.583
127.797
124.849
123.192
122.367
122.244
121.488
117.634
110.252
106.546
104.795
103.863
102.991
99.2489
95.0213
92.3641
90.1184
87.9584
85.8353
83.7471
81.6952
79.6804
77.7029
75.7635
73.8629
72.0021
70.1804
68.3964
66.643
64.9282
63.248
61.6058
59.9992
58.4256
56.8822
55.3692
53.884
52.4295
50.9979
49.581
48.1711
46.7672
45.3803
44.0175
42.6881
41.3988
40.1579
38.9732
37.8457
36.7704
35.7409
34.7473
33.7803
32.8303
31.89
30.9555
30.0252
29.1045
28.1995
27.3232
26.4853
25.7023
24.9883
24.3552
23.8133
23.3657
23.0164
22.7584
22.5849
22.4854
22.4499
22.4634
22.5166
22.5977
22.7069
22.8344
22.9846
23.1657
23.3769
23.6069
23.8512
24.1237
24.4427
24.788
25.1543
25.5815
26.1273
26.8874
28.1129
109.192
33.8732
31.1437
32.5764
35.6053
39.4926
43.7042
47.7711
51.3902
54.4583
57.0436
59.188
61.0627
62.7808
64.4284
66.0664
67.7333
69.4505
71.2276
73.0666
74.9655
76.9202
78.9274
80.9749
83.0815
85.2536
87.4867
89.7727
92.1163
94.5303
97.0159
99.5718
102.199
104.901
107.675
110.513
113.401
116.32
119.25
122.161
125.035
127.854
130.583
133.253
135.908
138.589
141.312
144.093
146.937
149.851
152.837
155.891
159
162.15
165.323
168.499
171.653
174.756
177.781
180.698
183.482
186.103
188.525
190.716
192.638
194.258
195.544
196.492
197.107
197.492
197.638
197.303
196.384
195.124
193.581
191.772
189.675
187.25
184.515
181.57
178.521
175.441
172.33
169.151
165.904
162.566
159.052
155.398
151.844
148.511
145.201
141.681
138.171
134.99
131.973
128.99
125.939
122.543
119.573
116.415
113.593
111.013
108.472
105.772
102.725
99.7189
97.0199
94.4669
91.975
89.5292
87.13
84.7787
82.4751
80.2196
78.0118
75.8522
73.7409
71.6771
69.6606
67.6895
65.7678
63.8924
62.0642
60.2804
58.5408
56.8433
55.1876
53.5728
51.9979
50.4612
48.9585
47.4844
46.0425
44.6184
43.1875
41.7522
40.32
38.9014
37.5131
36.1678
34.8682
33.6212
32.4217
31.2663
30.1476
29.0607
28.0026
26.9686
25.9599
24.975
24.0179
23.0911
22.2024
21.3598
20.5713
19.8455
19.1899
18.6122
18.1159
17.7034
17.373
17.1251
16.9499
16.8281
16.7674
16.7476
16.7316
16.7441
16.7886
16.8534
16.9411
17.0547
17.1925
17.3591
17.5586
17.7959
18.0849
18.4613
18.9921
19.8185
135.345
44.0011
39.1957
39.5416
41.4062
43.9031
46.596
49.1985
51.5713
53.6755
55.5553
57.3089
59.0168
60.7394
62.5155
64.3656
66.2974
68.309
70.3945
72.5446
74.7503
77.007
79.3269
81.6837
84.0743
86.5014
88.9655
91.4672
94.0089
96.5925
99.2179
101.884
104.59
107.333
110.108
112.911
115.734
118.573
121.423
124.28
127.15
130.043
132.98
135.981
139.065
142.246
145.531
148.921
152.42
156.028
159.745
163.567
167.485
171.483
175.547
179.653
183.774
187.879
191.932
195.892
199.719
203.365
206.783
209.924
212.74
215.183
217.215
218.807
219.94
220.639
221.053
221.059
220.297
219.045
217.375
215.323
212.914
210.172
207.13
203.837
200.35
196.714
192.969
189.142
185.261
181.334
177.359
173.352
169.354
165.39
161.447
157.525
153.663
149.874
146.117
142.345
138.508
134.533
131.144
127.898
124.691
121.486
118.263
115.009
111.748
108.57
105.509
102.531
99.6162
96.7605
93.9646
91.2299
88.555
85.941
83.3862
80.8914
78.4558
76.079
73.7616
71.5019
69.3006
67.1561
65.0693
63.0369
61.0598
59.1357
57.2643
55.4445
53.6754
51.9556
50.2838
48.658
47.0766
45.5334
44.0142
42.4852
40.9176
39.3305
37.7524
36.2052
34.6959
33.2414
31.8407
30.4966
29.206
27.966
26.7755
25.6267
24.5193
23.4471
22.4103
21.4068
20.4398
19.513
18.6288
17.7938
17.0128
16.2943
15.6434
15.0668
14.568
14.1519
13.819
13.5505
13.3381
13.1982
13.1164
13.057
13.0378
13.0221
13.0214
13.0206
13.0661
13.1277
13.2189
13.344
13.5141
13.7501
14.0943
14.6162
151.801
51.1075
44.3036
43.6121
44.4196
45.7949
47.3857
49.0603
50.6836
52.2762
53.872
55.513
57.2339
59.0561
60.9881
63.0288
65.1702
67.401
69.7086
72.0806
74.506
76.9741
79.4995
82.0713
84.6759
87.3034
89.9592
92.6467
95.3689
98.1279
100.925
103.761
106.637
109.553
112.509
115.506
118.545
121.632
124.771
127.971
131.245
134.607
138.071
141.655
145.372
149.23
153.238
157.398
161.715
166.191
170.826
175.618
180.558
185.631
190.822
196.102
201.439
206.793
212.119
217.359
222.457
227.35
231.971
236.25
240.121
243.521
246.391
248.681
250.363
251.444
252.096
252.284
251.551
250.173
248.241
245.81
242.933
239.658
236.035
232.119
227.964
223.616
219.124
214.531
209.871
205.171
200.453
195.736
191.035
186.357
181.709
177.105
172.561
168.077
163.631
159.186
154.692
150.06
146.01
142.154
138.339
134.535
130.744
126.977
123.261
119.627
116.083
112.621
109.234
105.922
102.685
99.5218
96.4329
93.4172
90.4741
87.6033
84.8041
82.0756
79.419
76.8315
74.3139
71.864
69.483
67.1673
64.9181
62.7325
60.6106
58.5512
56.5528
54.6148
52.736
50.9151
49.1496
47.4343
45.7576
44.094
42.387
40.6275
38.8584
37.1112
35.4032
33.751
32.1593
30.6356
29.1788
27.7845
26.4578
25.186
23.9734
22.811
21.6958
20.6232
19.5937
18.6071
17.6617
16.7617
15.9086
15.1088
14.3661
13.6882
13.0805
12.5471
12.0945
11.7142
11.4001
11.1495
10.9568
10.8098
10.7211
10.6814
10.645
10.6028
10.6125
10.5966
10.6437
10.6596
10.7395
10.8658
11.064
11.3619
159.329
55.0418
46.6125
45.0493
45.117
45.8272
46.802
47.9207
49.1705
50.5421
52.0418
53.6793
55.46
57.3829
59.4407
61.622
63.9129
66.299
68.7666
71.3033
73.8993
76.5464
79.2384
81.9698
84.7454
87.5813
90.4572
93.3638
96.3131
99.3112
102.362
105.47
108.636
111.867
115.164
118.533
121.98
125.513
129.142
132.877
136.732
140.719
144.854
149.149
153.617
158.267
163.111
168.155
173.406
178.871
184.551
190.445
196.55
202.85
209.329
215.957
222.698
229.502
236.311
243.056
249.659
256.036
262.098
267.747
272.892
277.442
281.316
284.446
286.782
288.305
289.156
289.386
288.545
286.886
284.516
281.513
277.955
273.917
269.47
264.686
259.629
254.363
248.941
243.413
237.825
232.207
226.59
220.994
215.433
209.916
204.451
199.049
193.719
188.462
183.26
178.082
172.87
167.495
162.716
158.176
153.708
149.28
144.898
140.572
136.319
132.154
128.084
124.108
120.223
116.427
112.72
109.102
105.572
102.128
98.7702
95.4975
92.3096
89.2046
86.1837
83.2443
80.3863
77.6078
74.9093
72.2878
69.7437
67.2748
64.8802
62.559
60.3095
58.1311
56.0222
53.9816
52.0064
50.0907
48.2221
46.3747
44.4905
42.5391
40.5702
38.6212
36.7141
34.8687
33.0922
31.3928
29.7716
28.2289
26.764
25.3693
24.0476
22.7905
21.5937
20.4489
19.358
18.317
17.3199
16.3714
15.4692
14.6172
13.817
13.075
12.3968
11.7866
11.2506
10.7878
10.395
10.0673
9.79987
9.58637
9.41913
9.29511
9.21069
9.1311
9.08977
9.06443
9.07978
9.0739
9.12547
9.17482
9.24375
9.39642
158.945
56.2729
46.7711
44.6395
44.2839
44.5757
45.2181
46.107
47.2074
48.5052
49.9927
51.6621
53.5041
55.5071
57.6571
59.9392
62.3382
64.8398
67.4316
70.1023
72.8437
75.6491
78.5139
81.4361
84.4146
87.4507
90.5587
93.7423
96.982
100.293
103.682
107.156
110.719
114.377
118.136
122.001
125.981
130.085
134.321
138.701
143.237
147.941
152.827
157.908
163.196
168.705
174.446
180.433
186.677
193.188
199.972
207.037
214.38
221.994
229.862
237.96
246.246
254.668
263.156
271.628
279.987
288.121
295.911
303.228
309.94
315.916
321.041
325.209
328.341
330.396
331.483
331.691
330.62
328.51
325.49
321.677
317.176
312.098
306.551
300.625
294.414
287.989
281.423
274.77
268.082
261.395
254.741
248.139
241.604
235.141
228.764
222.481
216.296
210.21
204.21
198.268
192.32
186.19
180.666
175.425
170.289
165.224
160.231
155.318
150.499
145.781
141.169
136.663
132.263
127.967
123.775
119.686
115.697
111.808
108.019
104.327
100.733
97.2345
93.8332
90.5245
87.3097
84.1858
81.1539
78.2101
75.3555
72.587
69.9041
67.3049
64.7887
62.3537
59.9985
57.7216
55.5192
53.384
51.3018
49.2418
47.1375
44.97
42.7897
40.6347
38.5276
36.4905
34.5307
32.6578
30.8736
29.18
27.5761
26.0556
24.6192
23.2597
21.9737
20.7527
19.5941
18.4944
17.4469
16.4521
15.5066
14.612
13.7678
12.9787
12.2488
11.5832
10.9869
10.4613
10.0067
9.61938
9.29472
9.02643
8.80661
8.62767
8.48564
8.36987
8.27884
8.20603
8.1774
8.17246
8.15749
8.19248
8.23269
8.27205
154.332
55.7814
45.5752
42.984
42.3681
42.4975
43.0302
43.8501
44.9156
46.2076
47.7123
49.416
51.3044
53.3627
55.5758
57.9289
60.4084
63.0016
65.6981
68.489
71.3682
74.3311
77.3753
80.5009
83.7087
87.0025
90.3856
93.8742
97.4601
101.148
104.947
108.864
112.906
117.078
121.385
125.835
130.434
135.19
140.111
145.206
150.487
155.963
161.647
167.554
173.695
180.087
186.745
193.684
200.925
208.48
216.368
224.6
233.185
242.124
251.41
261.027
270.938
281.09
291.413
301.81
312.17
322.351
332.203
341.552
350.213
358.005
364.749
370.288
374.489
377.262
378.703
378.891
377.503
374.774
370.87
365.955
360.188
353.736
346.743
339.349
331.672
323.809
315.847
307.85
299.873
291.954
284.123
276.398
268.792
261.309
253.96
246.754
239.689
232.761
225.96
219.257
212.58
205.716
199.452
193.516
187.716
182.013
176.407
170.903
165.51
160.233
155.075
150.037
145.117
140.314
135.629
131.059
126.603
122.26
118.03
113.909
109.899
105.996
102.203
98.5146
94.9318
91.4515
88.0749
84.7979
81.6215
78.5419
75.5591
72.6708
69.8758
67.1728
64.5597
62.0341
59.5918
57.224
54.9117
52.6164
50.2617
47.8612
45.4608
43.0962
40.789
38.5612
36.4202
34.3757
32.4296
30.5847
28.84
27.1894
25.6334
24.1649
22.7811
21.473
20.2369
19.0693
17.963
16.9158
15.9227
14.9839
14.0967
13.2649
12.4909
11.7784
11.1325
10.5557
10.0496
9.61164
9.2383
8.92332
8.65995
8.44039
8.25727
8.10427
7.97493
7.86693
7.7766
7.71563
7.68704
7.67846
7.6683
7.7027
146.305
54.103
43.5728
40.7285
39.967
40.0336
40.5454
41.3665
42.4441
43.7534
45.278
47.0043
48.9187
51.0079
53.2586
55.6588
58.1971
60.8641
63.652
66.5546
69.5683
72.6911
75.923
79.2661
82.7232
86.2999
90.002
93.8366
97.8091
101.923
106.186
110.605
115.185
119.934
124.854
129.95
135.229
140.694
146.352
152.21
158.275
164.556
171.063
177.809
184.809
192.077
199.632
207.494
215.687
224.234
233.157
242.482
252.231
262.418
273.053
284.135
295.644
307.538
319.753
332.192
344.733
357.219
369.464
381.245
392.319
402.429
411.313
418.73
424.47
428.382
430.422
430.707
429.005
425.54
420.525
414.193
406.79
398.551
389.703
380.435
370.917
361.277
351.62
342.024
332.545
323.223
314.085
305.146
296.407
287.864
279.524
271.386
263.442
255.683
248.094
240.645
233.263
225.699
218.719
212.104
205.658
199.333
193.126
187.041
181.083
175.253
169.556
163.989
158.554
153.249
148.071
143.022
138.098
133.299
128.625
124.073
119.643
115.332
111.143
107.069
103.112
99.27
95.5427
91.9258
88.4202
85.0226
81.7324
78.5476
75.4665
72.4873
69.608
66.8256
64.1351
61.5244
58.9693
56.4135
53.798
51.157
48.5327
45.9577
43.4519
41.0359
38.7166
36.5033
34.3977
32.4024
30.5167
28.7339
27.0549
25.4723
23.9837
22.5795
21.2561
20.0096
18.8326
17.7222
16.6723
15.6817
14.7461
13.8678
13.048
12.289
11.5958
10.9709
10.4162
9.93045
9.5108
9.1521
8.84746
8.58962
8.37078
8.18402
8.0231
7.88366
7.76166
7.65689
7.56969
7.50456
7.45609
7.45668
136.86
51.8573
41.2852
38.3036
37.4618
37.506
38.0282
38.8727
39.9744
41.303
42.8417
44.578
46.5014
48.6023
50.8711
53.2996
55.8799
58.6062
61.4737
64.4794
67.6228
70.9041
74.3261
77.8932
81.61
85.4838
89.5219
93.7316
98.1237
102.696
107.459
112.418
117.578
122.944
128.518
134.302
140.3
146.512
152.942
159.592
166.466
173.568
180.907
188.493
196.338
204.456
212.866
221.591
230.659
240.098
249.94
260.221
270.978
282.242
294.047
306.414
319.352
332.841
346.842
361.273
376.023
390.932
405.794
420.35
434.294
447.282
458.948
468.928
476.886
482.546
485.725
486.5
484.69
480.513
474.245
466.215
456.782
446.302
435.111
423.497
411.694
399.885
388.202
376.738
365.55
354.67
344.114
333.881
323.96
314.337
304.995
295.929
287.121
278.552
270.199
262.034
253.977
245.757
238.101
230.84
223.777
216.859
210.077
203.433
196.929
190.568
184.348
178.271
172.335
166.54
160.883
155.364
149.982
144.737
139.625
134.647
129.801
125.085
120.501
116.044
111.714
107.509
103.43
99.4714
95.6346
91.9165
88.3156
84.8307
81.4591
78.1999
75.05
72.0062
69.0617
66.2012
63.3919
60.5599
57.6811
54.7992
51.9518
49.1691
46.4678
43.8677
41.3745
38.9967
36.7356
34.5931
32.5683
30.654
28.8512
27.1519
25.554
24.0476
22.629
21.2942
20.0361
18.8511
17.7332
16.6804
15.6875
14.755
13.883
13.073
12.329
11.6537
11.0488
10.5136
10.0462
9.64202
9.29453
8.99687
8.74122
8.52029
8.32766
8.15777
8.00628
7.87031
7.74838
7.64027
7.54732
7.47506
127.318
49.5148
39.0608
36.0134
35.1279
35.166
35.706
36.5778
37.706
39.0549
40.6065
42.35
44.2782
46.3852
48.6658
51.1157
53.7315
56.5105
59.4519
62.5557
65.8244
69.2611
72.8712
76.6614
80.6379
84.8107
89.1905
93.7895
98.6087
103.652
108.928
114.443
120.199
126.201
132.449
138.941
145.677
152.654
159.872
167.326
175.018
182.946
191.115
199.529
208.197
217.131
226.347
235.867
245.72
255.936
266.555
277.619
289.178
301.282
313.986
327.342
341.39
356.152
371.624
387.766
404.497
421.685
439.135
456.582
473.678
490.004
505.084
518.402
529.443
537.748
542.937
544.897
543.501
538.911
531.45
521.565
509.78
496.631
482.613
468.159
453.611
439.217
425.158
411.537
398.413
385.804
373.707
362.101
350.953
340.222
329.88
319.899
310.25
300.901
291.824
282.981
274.293
265.475
257.196
249.337
241.702
234.232
226.915
219.749
212.736
205.876
199.167
192.61
186.202
179.942
173.83
167.865
162.045
156.37
150.839
145.449
140.201
135.092
130.124
125.292
120.598
116.036
111.61
107.314
103.15
99.1138
95.2043
91.4204
87.759
84.2194
80.798
77.4912
74.2903
71.1753
68.0994
64.9848
61.8477
58.729
55.6632
52.6773
49.7862
47.0082
44.3469
41.8107
39.3995
37.1147
34.9551
32.9125
30.9877
29.1723
27.4638
25.8523
24.3337
22.9044
21.5571
20.2884
19.0923
17.9669
16.9062
15.9104
14.978
14.1094
13.3084
12.5769
11.9168
11.3276
10.8079
10.3536
9.95876
9.61681
9.32011
9.06119
8.83339
8.6306
8.44777
8.28117
8.12813
7.98723
7.85827
7.7438
118.505
47.4904
37.1463
34.0713
33.1686
33.2134
33.7783
34.6835
35.8463
37.227
38.8059
40.573
42.5233
44.654
46.9636
49.4516
52.118
54.9638
57.9914
61.2042
64.6064
68.2041
72.0052
76.0242
80.2619
84.7252
89.4422
94.4212
99.6589
105.164
110.945
117.006
123.351
129.981
136.893
144.085
151.551
159.286
167.284
175.535
184.036
192.78
201.763
210.988
220.454
230.17
240.148
250.405
260.967
271.862
283.13
294.816
306.978
319.676
332.982
346.974
361.729
377.307
393.755
411.081
429.265
448.233
467.846
487.877
508
527.764
546.617
563.897
578.884
590.865
599.2
603.441
603.394
599.122
590.92
579.354
565.139
549.039
531.784
514.018
496.243
478.819
461.992
445.892
430.58
416.055
402.286
389.223
376.8
364.948
353.611
342.74
332.287
322.205
312.453
302.989
293.73
284.385
275.555
267.16
259.013
251.051
243.255
235.624
228.154
220.845
213.695
206.703
199.866
193.184
186.656
180.281
174.057
167.984
162.062
156.288
150.662
145.182
139.85
134.662
129.618
124.716
119.957
115.335
110.853
106.507
102.297
98.2197
94.2741
90.4585
86.769
83.2018
79.7446
76.3713
73.0144
69.6246
66.2369
62.8888
59.6117
56.43
53.3565
50.4077
47.5862
44.8987
42.3447
39.9248
37.6364
35.4709
33.4286
31.5003
29.6832
27.9666
26.3469
24.8201
23.3789
22.0203
20.7383
19.5315
18.3939
17.3255
16.324
15.3886
14.5228
13.7279
13.0058
12.356
11.7774
11.2667
10.8181
10.4256
10.0815
9.77857
9.50995
9.26908
9.05054
8.84983
8.6637
8.4897
8.32686
8.17737
110.914
45.9051
35.7027
32.6377
31.7501
31.8241
32.4325
33.3913
34.6136
36.0564
37.6984
39.5295
41.5457
43.7472
46.1371
48.7149
51.483
54.4435
57.5982
60.9512
64.5147
68.2973
72.3131
76.5765
81.1001
85.8906
90.9553
96.3047
101.95
107.899
114.162
120.742
127.643
134.865
142.406
150.26
158.418
166.872
175.613
184.626
193.901
203.427
213.196
223.2
233.437
243.906
254.613
265.57
276.795
288.312
300.155
312.366
324.998
338.113
351.791
366.121
381.205
397.137
414.001
431.856
450.741
470.665
491.572
513.338
535.724
558.356
580.696
602.02
621.453
638.009
650.703
658.707
661.344
658.679
650.718
638.087
621.697
602.597
581.84
560.358
538.899
518
498.008
479.101
461.346
444.717
429.153
414.56
400.83
387.856
375.548
363.828
352.626
341.875
331.519
321.507
311.754
301.97
292.676
283.828
275.249
266.87
258.672
250.647
242.791
235.103
227.578
220.215
213.01
205.964
199.075
192.342
185.764
179.34
173.069
166.951
160.984
155.169
149.506
143.991
138.625
133.405
128.334
123.407
118.626
113.987
109.49
105.133
100.914
96.832
92.8831
89.0611
85.3512
81.7161
78.0734
74.418
70.7902
67.2227
63.744
60.376
57.1294
54.0193
51.0463
48.217
45.5287
42.9816
40.5726
38.2914
36.1379
34.1022
32.1806
30.3625
28.6432
27.019
25.4826
24.0312
22.6588
21.3647
20.1432
18.9944
17.9158
16.9058
15.9675
15.1017
14.3103
13.5927
12.9481
12.3736
11.864
11.4134
11.0146
10.6603
10.3438
10.0582
9.7976
9.5572
9.33311
9.12229
8.92311
8.73767
105.122
44.8104
34.8493
31.8649
31.0502
31.1977
31.8888
32.939
34.2595
35.8029
37.5476
39.4901
41.6279
43.9626
46.4971
49.238
52.1901
55.3571
58.7441
62.3559
66.1979
70.2801
74.6123
79.2045
84.0665
89.2113
94.6508
100.396
106.46
112.853
119.584
126.66
134.083
141.856
149.977
158.438
167.232
176.347
185.771
195.488
205.484
215.742
226.25
236.996
247.97
259.167
270.587
282.233
294.117
306.254
318.668
331.391
344.469
357.952
371.911
386.435
401.628
417.598
434.445
452.247
471.08
491.006
512.061
534.241
557.475
581.568
606.163
630.661
654.189
675.596
693.532
706.64
713.768
714.163
707.876
695.276
677.397
655.597
631.32
605.902
580.432
555.699
532.208
510.215
489.802
470.924
453.476
437.312
422.275
408.211
394.983
382.481
370.607
359.273
348.405
337.939
327.787
317.669
308.019
298.818
289.903
281.206
272.699
264.374
256.223
248.243
240.428
232.776
225.284
217.95
210.773
203.752
196.885
190.172
183.613
177.206
170.952
164.848
158.899
153.099
147.45
141.949
136.6
131.397
126.344
121.437
116.675
112.059
107.585
103.253
99.0588
94.9927
91.0348
87.129
83.2088
79.3039
75.4499
71.6762
68.0084
64.4661
61.0579
57.7974
54.6838
51.7225
48.9102
46.2455
43.7247
41.3365
39.0796
36.9435
34.9241
33.0096
31.195
29.4764
27.8463
26.3022
24.838
23.4538
22.1441
20.9097
19.7481
18.6571
17.6397
16.6963
15.8287
15.0365
14.319
13.6737
13.0956
12.5794
12.1183
11.7051
11.3329
10.9949
10.6851
10.3982
10.1298
9.87648
9.636
9.41052
101.525
44.2246
34.7151
31.9156
31.2131
31.4585
32.2587
33.4384
34.9131
36.6385
38.5923
40.7642
43.154
45.7637
48.5963
51.6556
54.946
58.4724
62.2393
66.2514
70.5136
75.0319
79.813
84.8655
90.1971
95.8189
101.742
107.978
114.538
121.434
128.676
136.272
144.227
152.546
161.227
170.266
179.656
189.387
199.446
209.818
220.486
231.434
242.646
254.108
265.806
277.732
289.879
302.246
314.838
327.661
340.728
354.06
367.685
381.637
395.967
410.745
426.061
442.014
458.686
476.134
494.417
513.589
533.718
554.884
577.171
600.635
625.252
650.793
676.702
701.938
724.936
743.827
756.747
761.961
759.059
747.974
729.707
705.885
678.395
649.075
619.462
590.69
563.488
538.228
515.03
493.829
474.473
456.756
440.458
425.371
411.31
398.122
385.678
373.869
362.598
351.788
341.349
331.015
321.131
311.694
302.558
293.655
284.951
276.435
268.096
259.929
251.926
244.085
236.401
228.872
221.496
214.271
207.197
200.273
193.499
186.873
180.396
174.066
167.888
161.857
155.974
150.238
144.653
139.215
133.925
128.782
123.786
118.937
114.233
109.672
105.249
100.951
96.7477
92.5663
88.3854
84.2482
80.1844
76.2199
72.3775
68.6744
65.1173
61.7185
58.4759
55.3937
52.4675
49.6951
47.0716
44.5849
42.2329
40.0039
37.8934
35.8885
33.9838
32.1751
30.4546
28.8198
27.2647
25.7899
24.3902
23.0672
21.8184
20.6419
19.5402
18.5138
17.5644
16.6916
15.8948
15.1721
14.5187
13.9298
13.3988
12.9188
12.4832
12.0851
11.7183
11.3773
11.0575
10.755
10.467
10.1958
100.94
44.0832
35.3575
32.9321
32.4983
32.9784
34.0176
35.4502
37.1995
39.2281
41.5176
44.0605
46.8549
49.9024
53.2058
56.7689
60.5953
64.6881
69.0502
73.6839
78.5912
83.7743
89.2359
94.9801
101.01
107.333
113.956
120.887
128.135
135.709
143.619
151.874
160.478
169.438
178.756
188.43
198.457
208.828
219.536
230.567
241.909
253.546
265.464
277.652
290.097
302.788
315.721
328.889
342.295
355.936
369.818
383.947
398.334
412.99
427.941
443.225
458.902
475.044
491.689
508.833
526.451
544.512
563.005
581.972
601.549
621.977
643.606
666.788
691.684
717.861
743.799
767.3
786.087
797.548
799.048
790.871
773.435
748.517
718.455
685.647
652.161
619.541
588.789
560.422
534.611
511.276
490.215
471.155
453.802
437.893
423.191
409.499
396.659
384.54
373.027
362.031
351.455
341.055
331.086
321.568
312.36
303.394
294.635
286.065
277.674
269.453
261.393
253.489
245.736
238.131
230.671
223.355
216.18
209.147
202.255
195.503
188.891
182.419
176.09
169.901
163.855
157.949
152.19
146.571
141.098
135.768
130.583
125.543
120.645
115.889
111.265
106.754
102.302
97.8598
93.4477
89.105
84.8569
80.7256
76.7312
72.8888
69.2031
65.685
62.3313
59.1449
56.1203
53.2546
50.5419
47.9689
45.5331
43.2218
41.0296
38.943
36.9563
35.0648
33.2603
31.5402
29.8989
28.3369
26.8495
25.4389
24.1031
22.8403
21.6529
20.5416
19.5079
18.5515
17.672
16.8677
16.1341
15.4671
14.8601
14.3068
13.8009
13.3355
12.9046
12.5023
12.1241
11.7657
11.4239
11.1008
103.982
44.7158
36.9136
34.9852
34.9072
35.7052
37.0753
38.8688
41.0172
43.4853
46.2548
49.3167
52.6675
56.3076
60.2388
64.4644
68.9874
73.8104
78.9352
84.3629
90.0934
96.1259
102.46
109.095
116.03
123.266
130.805
138.65
146.805
155.273
164.062
173.176
182.617
192.393
202.505
212.951
223.732
234.841
246.277
258.027
270.086
282.442
295.089
308.018
321.222
334.695
348.433
362.433
376.693
391.21
405.979
420.992
436.245
451.724
467.421
483.341
499.505
515.945
532.64
549.501
566.394
583.148
599.606
615.672
631.397
647.069
663.282
680.945
701.216
724.296
749.425
775.025
798.336
815.368
822.616
818.515
803.251
778.555
747.121
711.879
675.428
639.739
606.097
575.184
547.248
522.216
499.847
479.79
461.684
445.213
430.093
416.092
403.029
390.754
379.147
368.105
357.529
347.195
337.28
327.822
318.68
309.789
301.111
292.627
284.321
276.181
268.198
260.364
252.673
245.121
237.704
230.42
223.265
216.24
209.343
202.574
195.933