/*--------------------------------*- C++ -*----------------------------------*\
  =========                 |
  \\      /  F ield         | OpenFOAM: The Open Source CFD Toolbox
   \\    /   O peration     | Website:  https://openfoam.org
    \\  /    A nd           | Version:  7
     \\/     M anipulation  |
\*---------------------------------------------------------------------------*/
FoamFile
{
    version     2.0;
    format      ascii;
    class       volScalarField;
    location    "100";
    object      k;
}
// * * * * * * * * * * * * * * * * * * * * * * * * * * * * * * * * * * * * * //

dimensions      [0 2 -2 0 0 0 0];

internalField   nonuniform List<scalar> 
48900
(
0.585451
0.308409
0.266387
0.268195
0.316377
0.388837
0.450549
0.492135
0.517229
0.532174
0.541728
0.54852
0.553851
0.558384
0.562349
0.565796
0.568829
0.572005
0.394139
0.535274
0.532906
0.556235
0.634329
0.73599
0.832361
0.91258
0.976905
1.0291
1.07265
1.10994
1.14235
1.17081
1.19587
1.21787
1.23705
1.25322
0.376421
0.406901
0.414974
0.415566
0.415231
0.417134
0.422548
0.430835
0.441687
0.45494
0.47055
0.488416
0.50834
0.530017
0.553052
0.576963
0.601186
0.624974
0.374642
0.382073
0.386169
0.386882
0.385797
0.383541
0.380969
0.378406
0.376011
0.373843
0.372053
0.370742
0.37001
0.370014
0.370603
0.371973
0.374083
0.376886
0.374398
0.374926
0.376319
0.376554
0.375837
0.37424
0.372135
0.369734
0.367172
0.364533
0.361878
0.359259
0.356719
0.354292
0.35201
0.349897
0.347965
0.346215
0.374429
0.372896
0.372339
0.37184
0.370998
0.369735
0.368134
0.366293
0.364289
0.362182
0.360016
0.357823
0.355631
0.353462
0.351335
0.349264
0.347261
0.345336
0.374437
0.372362
0.370799
0.369587
0.368423
0.367155
0.365747
0.364211
0.362576
0.36087
0.359117
0.357339
0.355552
0.35377
0.352006
0.350271
0.348571
0.346914
0.374431
0.372241
0.370286
0.368606
0.367104
0.365673
0.364251
0.36281
0.361344
0.359857
0.358354
0.356844
0.355336
0.353837
0.352353
0.35089
0.349453
0.348046
0.374426
0.372199
0.370124
0.368226
0.366494
0.364886
0.363363
0.361896
0.360464
0.359059
0.357674
0.356308
0.354961
0.353636
0.352332
0.351053
0.349799
0.348572
0.374422
0.372172
0.370057
0.368079
0.366232
0.364506
0.362884
0.361349
0.359885
0.35848
0.357125
0.355813
0.35454
0.353302
0.352098
0.350926
0.349784
0.348672
0.374419
0.372153
0.370018
0.368007
0.366112
0.364327
0.362642
0.361049
0.35954
0.358105
0.356736
0.355426
0.354169
0.352961
0.351797
0.350674
0.349588
0.348539
0.374418
0.372141
0.369991
0.367963
0.366048
0.364235
0.362519
0.360894
0.359352
0.357888
0.356496
0.35517
0.353905
0.352695
0.351537
0.350427
0.34936
0.348335
0.374416
0.372132
0.369974
0.367935
0.366007
0.364181
0.36245
0.360808
0.359248
0.357766
0.356357
0.355016
0.353738
0.352519
0.351355
0.350242
0.349177
0.348157
0.374415
0.372125
0.369959
0.367911
0.365974
0.364138
0.362397
0.360743
0.359172
0.357678
0.356256
0.354903
0.353614
0.352385
0.351212
0.350093
0.349023
0.348001
0.374414
0.372119
0.369947
0.367892
0.365947
0.364103
0.362354
0.360694
0.359115
0.357613
0.356184
0.354823
0.353526
0.35229
0.351111
0.349986
0.348913
0.347887
0.374414
0.372115
0.369938
0.367878
0.365927
0.364077
0.362322
0.360656
0.359072
0.357566
0.356132
0.354767
0.353466
0.352226
0.351044
0.349917
0.348841
0.347815
0.374413
0.372112
0.369932
0.367867
0.365912
0.364058
0.362299
0.360629
0.359042
0.357533
0.356097
0.354729
0.353427
0.352186
0.351003
0.349876
0.348801
0.347775
0.374413
0.372109
0.369927
0.367861
0.365903
0.364046
0.362285
0.360613
0.359025
0.357514
0.356077
0.35471
0.353407
0.352167
0.350985
0.349859
0.348785
0.347762
0.374413
0.372108
0.369926
0.367858
0.365899
0.364043
0.362282
0.36061
0.359021
0.357512
0.356076
0.35471
0.353409
0.352171
0.350991
0.349867
0.348796
0.347776
0.374413
0.372109
0.369928
0.367862
0.365906
0.364051
0.362293
0.360624
0.359039
0.357532
0.3561
0.354737
0.35344
0.352205
0.351029
0.349909
0.348841
0.347824
0.374413
0.372112
0.369933
0.367871
0.365919
0.364069
0.362316
0.360652
0.359071
0.357569
0.356141
0.354782
0.35349
0.352259
0.351088
0.349972
0.348909
0.347896
0.374414
0.372116
0.369942
0.367886
0.365942
0.3641
0.362354
0.360697
0.359124
0.35763
0.35621
0.354859
0.353575
0.352353
0.351189
0.350081
0.349026
0.348021
0.374416
0.372123
0.369957
0.367912
0.365979
0.36415
0.362419
0.360779
0.359225
0.357751
0.356351
0.355021
0.353756
0.352552
0.351405
0.35031
0.349266
0.348268
0.374418
0.372134
0.369982
0.367956
0.366054
0.364268
0.36259
0.361009
0.359513
0.358093
0.356739
0.355445
0.354205
0.353015
0.35187
0.350768
0.349708
0.348686
0.374421
0.372153
0.370038
0.368107
0.366356
0.364747
0.363239
0.361796
0.360399
0.359036
0.357701
0.356393
0.355113
0.35386
0.352636
0.351443
0.350281
0.349152
0.374402
0.372214
0.370415
0.369002
0.367761
0.36653
0.365241
0.363879
0.362458
0.360997
0.359517
0.358033
0.35656
0.355104
0.353675
0.352275
0.35091
0.349581
0.37434
0.372988
0.372905
0.372818
0.372266
0.371215
0.369799
0.368158
0.366407
0.364616
0.362829
0.361069
0.359351
0.357682
0.356066
0.354507
0.353008
0.351571
0.375445
0.379135
0.383352
0.384305
0.3836
0.38181
0.379757
0.377842
0.376203
0.374877
0.373836
0.373039
0.372454
0.372061
0.37185
0.371822
0.371967
0.372317
0.404616
0.415014
0.420712
0.417845
0.414701
0.415447
0.420594
0.430084
0.442514
0.456753
0.471946
0.487523
0.503142
0.518621
0.53387
0.54885
0.563545
0.577948
0.364326
0.560224
0.522839
0.547472
0.63013
0.742463
0.855837
0.952609
1.027
1.08088
1.11893
1.1458
1.16512
1.17945
1.19046
1.19921
1.20638
1.2124
0.00842748
0.0198758
0.0344135
0.044253
0.0543254
0.0683807
0.0896683
0.117918
0.150006
0.182821
0.214331
0.243537
0.270084
0.294071
0.31575
0.335391
0.35326
0.369566
0.384468
0.398196
0.411105
0.423328
0.434979
0.44616
0.456954
0.467404
0.477533
0.487334
0.496795
0.505891
0.514585
0.522829
0.530557
0.537691
0.544128
0.549772
0.554496
0.558188
0.560804
0.562393
0.563369
0.564385
0.566393
0.570783
0.577493
0.585646
0.596693
0.607671
0.618233
0.628964
0.639458
0.649786
0.660056
0.67056
0.681703
0.692201
0.700762
0.710431
0.714848
0.720452
0.726093
0.72615
0.728305
0.724862
0.728575
0.724002
0.723303
0.7165
0.70905
0.693
0.681125
0.678321
0.674553
0.665121
0.654964
0.660847
0.662933
0.659498
0.650553
0.638344
0.6424
0.641535
0.663192
0.64982
0.642837
0.631544
0.62556
0.628656
0.66501
0.640504
0.63474
0.611784
0.691903
0.676747
0.637174
0.586532
0.536023
0.511337
0.529984
0.681413
0.657575
0.610306
0.567715
0.562842
0.634125
0.638623
0.627084
0.614489
0.60192
0.589477
0.577146
0.564978
0.552854
0.540849
0.528996
0.517369
0.505883
0.494572
0.483448
0.47253
0.461157
0.449468
0.437891
0.426666
0.415695
0.404629
0.393668
0.383064
0.372776
0.362799
0.352993
0.343516
0.334415
0.325654
0.317346
0.309549
0.302349
0.295726
0.289679
0.28411
0.278902
0.273924
0.268999
0.263907
0.258513
0.252703
0.246297
0.239253
0.231544
0.223233
0.214451
0.205418
0.196461
0.187782
0.179697
0.172425
0.166079
0.16071
0.156265
0.15259
0.149668
0.14741
0.145619
0.144108
0.142903
0.141928
0.140957
0.140934
0.141055
0.140511
0.140223
0.14026
0.141254
0.141332
0.141211
0.1411
0.142081
0.144122
0.145949
0.14774
0.0327527
0.0965746
0.132271
0.159131
0.185587
0.215718
0.250354
0.287751
0.325465
0.361653
0.395279
0.425901
0.453487
0.478299
0.500708
0.521142
0.540023
0.557709
0.574488
0.590581
0.606139
0.621273
0.636051
0.650532
0.664768
0.678811
0.692688
0.706404
0.719956
0.733365
0.746641
0.759792
0.772829
0.785771
0.798613
0.811352
0.823998
0.836751
0.849818
0.863378
0.877795
0.893571
0.911409
0.932156
0.956114
0.981692
1.00362
1.02533
1.04706
1.0687
1.09012
1.11126
1.13228
1.15305
1.17357
1.19368
1.21335
1.23253
1.25109
1.26893
1.28579
1.3013
1.31494
1.3278
1.33858
1.34813
1.3537
1.3575
1.36074
1.36321
1.36477
1.36467
1.36016
1.35281
1.34406
1.33168
1.32008
1.30778
1.2955
1.28352
1.26912
1.25032
1.22311
1.20553
1.19166
1.17845
1.16634
1.15989
1.15326
1.13344
1.10843
1.09109
1.0903
1.07383
1.05328
1.03109
1.00912
0.972984
0.968841
0.983683
0.975094
0.959595
0.943157
0.922208
0.919981
0.915376
0.901405
0.885852
0.870157
0.854556
0.83907
0.823723
0.808517
0.793467
0.778585
0.763912
0.749442
0.735192
0.721168
0.707334
0.69367
0.68016
0.666852
0.653773
0.640946
0.628189
0.615591
0.603275
0.591272
0.579464
0.567612
0.556011
0.544763
0.533807
0.523169
0.513028
0.503471
0.494542
0.486298
0.478688
0.471611
0.464946
0.458493
0.452093
0.445538
0.438657
0.431273
0.423224
0.414428
0.4048
0.394372
0.383236
0.371599
0.35972
0.347941
0.336618
0.326062
0.316539
0.308205
0.301117
0.295252
0.290549
0.28684
0.283905
0.281658
0.280007
0.278709
0.278246
0.27805
0.277855
0.277772
0.27798
0.279479
0.280908
0.281157
0.281586
0.283646
0.286337
0.289608
0.295148
0.0646292
0.174508
0.225142
0.261917
0.295984
0.331381
0.368553
0.405982
0.441899
0.475254
0.505737
0.533531
0.559084
0.582878
0.605397
0.627033
0.6481
0.668796
0.689263
0.709572
0.729764
0.749848
0.769825
0.789706
0.80948
0.829172
0.848783
0.868344
0.887898
0.907493
0.927184
0.947035
0.967117
0.987497
1.00828
1.02952
1.05136
1.07388
1.09719
1.12134
1.14635
1.17215
1.19859
1.22539
1.2522
1.2787
1.30467
1.33032
1.35583
1.3813
1.40679
1.43228
1.45773
1.48301
1.508
1.53261
1.55669
1.58005
1.60252
1.62388
1.64394
1.66256
1.67954
1.69468
1.7079
1.71895
1.72772
1.73409
1.73835
1.73993
1.74239
1.74211
1.73704
1.72948
1.71986
1.70848
1.6959
1.68177
1.66566
1.64814
1.62899
1.60824
1.58684
1.56586
1.54536
1.52519
1.50536
1.48554
1.46482
1.44191
1.41763
1.39562
1.37596
1.35483
1.33279
1.30999
1.28566
1.25885
1.24116
1.22754
1.21119
1.19294
1.17408
1.15324
1.13501
1.11794
1.09901
1.07933
1.05956
1.0399
1.02042
1.00113
0.982049
0.963174
0.944527
0.926118
0.907971
0.890078
0.872458
0.855095
0.837985
0.821132
0.804558
0.78825
0.772233
0.756468
0.740971
0.725762
0.710869
0.696272
0.68194
0.667923
0.654274
0.640966
0.628017
0.615563
0.603559
0.592067
0.581243
0.571029
0.561376
0.552203
0.543352
0.53469
0.526034
0.51722
0.508079
0.498414
0.48811
0.477017
0.465077
0.452247
0.438602
0.424287
0.409524
0.394622
0.379898
0.365742
0.352473
0.340388
0.329674
0.320406
0.312578
0.306097
0.300823
0.296611
0.293239
0.290635
0.288765
0.287494
0.286565
0.286013
0.285973
0.286554
0.287037
0.287466
0.288468
0.290236
0.293174
0.298481
0.0942576
0.246839
0.310862
0.353756
0.389425
0.423086
0.456373
0.489039
0.520368
0.54996
0.577878
0.604439
0.630045
0.655072
0.679805
0.70444
0.729084
0.753772
0.77851
0.803272
0.828018
0.852705
0.877307
0.901797
0.92616
0.950415
0.974574
0.998692
1.02281
1.04698
1.07129
1.0958
1.12058
1.14569
1.17122
1.19717
1.22359
1.2505
1.27788
1.3057
1.33389
1.36239
1.3911
1.41997
1.44896
1.47806
1.50722
1.53645
1.56579
1.59528
1.62493
1.65471
1.68455
1.71436
1.744
1.77333
1.80219
1.83037
1.8577
1.88393
1.90884
1.9322
1.95378
1.97338
1.99074
2.00571
2.01808
2.02767
2.03428
2.03804
2.04081
2.0415
2.03721
2.02975
2.0197
2.00737
1.99292
1.97638
1.95785
1.9376
1.9159
1.89295
1.86906
1.84445
1.81943
1.79409
1.76841
1.74237
1.71612
1.68955
1.66262
1.63581
1.60935
1.58281
1.55605
1.52902
1.50144
1.47319
1.44923
1.4267
1.40384
1.38043
1.35675
1.33268
1.3088
1.28529
1.26159
1.23776
1.21398
1.19039
1.16705
1.14396
1.12113
1.09859
1.07633
1.05437
1.03272
1.01138
0.99037
0.969678
0.949317
0.929278
0.909585
0.890221
0.871202
0.852514
0.834174
0.816181
0.798546
0.781274
0.764358
0.747814
0.73167
0.715953
0.700724
0.686057
0.672021
0.658652
0.645969
0.633896
0.6224
0.611332
0.600587
0.590106
0.579723
0.569329
0.558776
0.547882
0.536527
0.524551
0.511865
0.498341
0.483969
0.468796
0.452906
0.436502
0.419788
0.403113
0.386781
0.371185
0.356655
0.343426
0.331703
0.321587
0.313047
0.305938
0.300108
0.295372
0.291578
0.288578
0.2862
0.284873
0.283779
0.283756
0.28354
0.283616
0.284219
0.284821
0.286894
0.290962
0.117175
0.303842
0.378209
0.425346
0.461028
0.491752
0.520564
0.548597
0.576107
0.603166
0.629904
0.656525
0.683226
0.710157
0.737393
0.764955
0.792801
0.820874
0.849095
0.877387
0.905674
0.933893
0.961999
0.989977
1.01781
1.04552
1.07312
1.10065
1.12817
1.15574
1.18341
1.21126
1.23934
1.26771
1.29641
1.32545
1.35486
1.38465
1.41479
1.44527
1.47607
1.50719
1.53862
1.57039
1.60252
1.63502
1.66789
1.70113
1.73474
1.76873
1.80308
1.83778
1.87274
1.90785
1.943
1.97801
2.0127
2.04684
2.08018
2.11244
2.14336
2.1726
2.19989
2.22492
2.2474
2.26704
2.28362
2.2969
2.30664
2.31285
2.31608
2.31823
2.31493
2.30751
2.29681
2.28316
2.26679
2.2479
2.22674
2.20357
2.17868
2.15229
2.12467
2.09607
2.06676
2.03688
2.00655
1.9759
1.94507
1.91408
1.88284
1.85145
1.82013
1.78885
1.75753
1.72596
1.69387
1.6609
1.63181
1.60385
1.57591
1.54777
1.51949
1.49106
1.46261
1.43436
1.40628
1.37836
1.35066
1.32324
1.29613
1.26935
1.2429
1.2168
1.19105
1.16566
1.14064
1.11599
1.09174
1.06787
1.04439
1.02129
0.99861
0.976316
0.954433
0.932949
0.911878
0.891217
0.870976
0.851154
0.831763
0.812808
0.794309
0.776282
0.758773
0.741858
0.725634
0.710153
0.695427
0.681409
0.668042
0.655233
0.642881
0.630883
0.619099
0.607425
0.595684
0.583773
0.571571
0.558939
0.545776
0.531935
0.517349
0.502008
0.485901
0.469122
0.451775
0.434094
0.4163
0.398756
0.381811
0.365782
0.35101
0.337764
0.326183
0.316235
0.307838
0.300855
0.295086
0.290353
0.286501
0.283418
0.281161
0.279869
0.279411
0.279688
0.279908
0.279665
0.28121
0.283365
0.131758
0.341828
0.423033
0.473393
0.509606
0.538862
0.565144
0.59055
0.616044
0.642007
0.668605
0.695905
0.723928
0.752649
0.781999
0.811886
0.842199
0.87282
0.90364
0.934558
0.965493
0.996378
1.02717
1.05785
1.08841
1.11887
1.14926
1.17961
1.20998
1.24041
1.27097
1.30171
1.3327
1.36397
1.39556
1.4275
1.45981
1.49252
1.52562
1.55912
1.59305
1.62743
1.66229
1.69767
1.73362
1.77016
1.80732
1.8451
1.88351
1.92255
1.96222
2.00246
2.04323
2.08441
2.12586
2.16741
2.20882
2.24983
2.29015
2.32942
2.36729
2.40339
2.43731
2.46866
2.49704
2.52212
2.54354
2.56101
2.57431
2.58331
2.58848
2.59071
2.58842
2.58084
2.56919
2.5539
2.53531
2.51373
2.48946
2.46285
2.4342
2.4038
2.37197
2.339
2.30514
2.2706
2.23558
2.20022
2.16463
2.12883
2.09285
2.05677
2.02073
1.98474
1.94869
1.91232
1.87532
1.83715
1.80303
1.77017
1.73747
1.7047
1.67187
1.63902
1.60625
1.57374
1.54153
1.50964
1.4781
1.44692
1.41613
1.38574
1.35575
1.32618
1.29702
1.26829
1.23999
1.21212
1.18472
1.15775
1.13125
1.10519
1.07961
1.05448
1.02983
1.00563
0.98191
0.958667
0.935902
0.913621
0.891834
0.870547
0.84977
0.829515
0.809814
0.790717
0.772328
0.754715
0.737894
0.721828
0.706466
0.69173
0.67754
0.663816
0.650457
0.637373
0.624458
0.611595
0.598657
0.585494
0.571967
0.557952
0.543346
0.528112
0.512177
0.495563
0.478286
0.46048
0.44227
0.423936
0.405771
0.388101
0.37132
0.355771
0.341735
0.329342
0.318618
0.309483
0.301788
0.295346
0.289978
0.285513
0.281863
0.278854
0.276905
0.277021
0.276621
0.276157
0.277588
0.279422
0.138564
0.36197
0.44684
0.499663
0.537286
0.566973
0.59301
0.617933
0.643105
0.66915
0.696289
0.724541
0.753838
0.784061
0.815074
0.846733
0.878895
0.911423
0.944201
0.97713
1.01013
1.04315
1.07614
1.1091
1.14203
1.17494
1.20787
1.24086
1.27395
1.3072
1.34066
1.37438
1.4084
1.44278
1.47754
1.51272
1.54833
1.58442
1.621
1.65809
1.69574
1.73397
1.77284
1.81239
1.85268
1.89373
1.93561
1.97832
2.0219
2.06638
2.11173
2.15793
2.20493
2.25262
2.30088
2.3495
2.39825
2.4468
2.49482
2.54189
2.58756
2.63137
2.67281
2.71136
2.74653
2.77782
2.80482
2.82712
2.84444
2.85654
2.86362
2.8667
2.86484
2.85684
2.84391
2.82658
2.8053
2.78048
2.75254
2.72187
2.68887
2.65392
2.61735
2.57951
2.5407
2.50114
2.46107
2.42063
2.37995
2.33911
2.29816
2.25718
2.21625
2.17536
2.1344
2.09314
2.05121
2.00788
1.96874
1.9311
1.89375
1.85645
1.81921
1.78208
1.74518
1.70861
1.67244
1.6367
1.60139
1.56652
1.53212
1.49818
1.46472
1.43173
1.39923
1.36721
1.3357
1.30468
1.27418
1.24419
1.21472
1.18577
1.15735
1.12944
1.10207
1.07523
1.04892
1.02315
0.997918
0.973233
0.949099
0.925523
0.902513
0.880075
0.858227
0.837013
0.816518
0.796808
0.777907
0.759784
0.742402
0.725692
0.709597
0.694042
0.678961
0.664276
0.649913
0.635787
0.621812
0.607878
0.593879
0.57968
0.56512
0.550074
0.534446
0.518204
0.501306
0.483811
0.465753
0.447331
0.428759
0.410318
0.392401
0.375372
0.359586
0.345285
0.33262
0.321609
0.312168
0.304151
0.297358
0.291622
0.286765
0.282641
0.279157
0.277026
0.275815
0.275563
0.275343
0.277035
0.138452
0.367333
0.453532
0.508304
0.548012
0.579528
0.607006
0.633043
0.65916
0.686131
0.714261
0.743604
0.774083
0.805569
0.837905
0.870942
0.904537
0.938562
0.972908
1.00749
1.04224
1.07712
1.11211
1.14719
1.18238
1.21771
1.2532
1.28892
1.32488
1.36115
1.39776
1.43477
1.4722
1.5101
1.54848
1.58738
1.62682
1.66682
1.70741
1.74862
1.79047
1.83302
1.87631
1.92039
1.96531
2.01114
2.05791
2.1057
2.15455
2.20448
2.25553
2.3077
2.36095
2.41521
2.47034
2.5262
2.5825
2.63892
2.69508
2.7505
2.80465
2.85694
2.90678
2.95349
2.99641
3.0349
3.0684
3.09638
3.11841
3.13422
3.14364
3.14777
3.14617
3.13752
3.12296
3.10318
3.07869
3.05004
3.0178
2.98243
2.94448
2.90435
2.8625
2.81929
2.77506
2.7301
2.68463
2.63882
2.59281
2.54668
2.50054
2.45445
2.40849
2.36263
2.31679
2.27076
2.22412
2.17588
2.13188
2.08959
2.04774
2.00608
1.9646
1.92337
1.88249
1.84203
1.80203
1.76253
1.72353
1.68505
1.6471
1.60968
1.57279
1.53644
1.50065
1.46541
1.43073
1.39661
1.36307
1.3301
1.29772
1.26591
1.23469
1.20405
1.17402
1.14457
1.11571
1.08745
1.0598
1.03274
1.0063
0.980473
0.955262
0.930667
0.90671
0.883424
0.860875
0.839122
0.818185
0.798042
0.778665
0.759998
0.741991
0.724591
0.707742
0.691386
0.675469
0.659925
0.644694
0.629692
0.614843
0.600052
0.585214
0.570208
0.55488
0.539044
0.522617
0.505595
0.487942
0.469789
0.451275
0.432621
0.414184
0.396318
0.379398
0.363733
0.349565
0.337008
0.32605
0.316606
0.308513
0.301583
0.29564
0.290511
0.286059
0.282361
0.279235
0.277315
0.276814
0.277402
0.134525
0.363588
0.449373
0.505206
0.546772
0.580464
0.610198
0.638364
0.666248
0.694702
0.72413
0.754658
0.786261
0.818844
0.852281
0.886445
0.921215
0.956489
0.99218
1.02822
1.06458
1.10122
1.13813
1.17534
1.21284
1.25069
1.28891
1.32754
1.36664
1.40622
1.44634
1.48702
1.52828
1.57015
1.61263
1.65574
1.69949
1.74389
1.78895
1.83468
1.88111
1.92828
1.97621
2.02497
2.0746
2.12519
2.17677
2.22944
2.28327
2.33833
2.39468
2.45236
2.51139
2.57173
2.63332
2.69601
2.75959
2.82373
2.88804
2.95199
3.01501
3.0764
3.13541
3.19124
3.24301
3.28991
3.33112
3.36593
3.39375
3.41414
3.4268
3.43248
3.43116
3.42179
3.40541
3.38277
3.35457
3.32154
3.28435
3.24367
3.20012
3.15425
3.10657
3.05753
3.00749
2.95677
2.90562
2.85423
2.80273
2.75123
2.69986
2.64871
2.59781
2.54715
2.49667
2.44613
2.39508
2.34227
2.29363
2.24692
2.20079
2.15497
2.10947
2.06432
2.0196
1.97538
1.93169
1.88854
1.84596
1.80395
1.76253
1.7217
1.68146
1.64183
1.6028
1.56439
1.5266
1.48943
1.4529
1.41701
1.38176
1.34713
1.31317
1.27984
1.24718
1.21516
1.1838
1.15309
1.12305
1.09367
1.06495
1.0369
1.00951
0.982802
0.956771
0.931457
0.906912
0.883177
0.860273
0.838175
0.816862
0.796289
0.776419
0.757206
0.738609
0.720582
0.703083
0.686063
0.669477
0.653262
0.637364
0.621706
0.606218
0.590802
0.575354
0.559737
0.543743
0.527201
0.510022
0.49227
0.474032
0.455472
0.436895
0.418626
0.401037
0.384458
0.369186
0.355411
0.343189
0.332497
0.323211
0.315169
0.308196
0.302107
0.296754
0.292045
0.287897
0.284417
0.281892
0.280925
0.127504
0.353101
0.437567
0.494142
0.537739
0.574119
0.606543
0.637043
0.666897
0.697165
0.72811
0.75992
0.792647
0.826257
0.860678
0.895828
0.931628
0.96801
1.00492
1.04233
1.08023
1.11859
1.15745
1.19682
1.23674
1.27724
1.31836
1.36015
1.40262
1.44583
1.48977
1.53448
1.57995
1.62618
1.67317
1.72089
1.76933
1.81848
1.86832
1.91885
1.97006
2.02198
2.07461
2.128
2.18221
2.23728
2.2933
2.35036
2.40858
2.46803
2.52883
2.59108
2.65487
2.72023
2.78719
2.85568
2.92557
2.9966
3.06841
3.14048
3.21222
3.28287
3.35157
3.41733
3.47908
3.53573
3.58619
3.62944
3.66461
3.69104
3.70825
3.71649
3.71608
3.7063
3.68814
3.66246
3.63021
3.59227
3.54959
3.50299
3.45328
3.40114
3.34718
3.2919
3.23574
3.17906
3.12213
3.06516
3.00828
2.95159
2.89523
2.83925
2.7837
2.72854
2.67372
2.619
2.56387
2.50689
2.45393
2.40306
2.35292
2.3032
2.25389
2.20503
2.15667
2.10884
2.0616
2.01496
1.96892
1.92351
1.87873
1.83459
1.7911
1.74827
1.7061
1.6646
1.62377
1.58362
1.54418
1.50541
1.46735
1.42998
1.39333
1.35737
1.32213
1.28759
1.25377
1.22066
1.18827
1.1566
1.12565
1.09542
1.06591
1.03712
1.00907
0.981782
0.955308
0.929667
0.904875
0.880906
0.857748
0.835358
0.813708
0.79276
0.772478
0.752829
0.733779
0.71529
0.697327
0.67984
0.662795
0.646126
0.629781
0.613687
0.59776
0.581906
0.565972
0.549787
0.533031
0.515679
0.49777
0.47943
0.460912
0.442506
0.424558
0.407397
0.391344
0.376636
0.363383
0.351622
0.341272
0.3322
0.324246
0.317226
0.310982
0.305381
0.300333
0.295798
0.291826
0.288498
0.119146
0.339427
0.42215
0.479189
0.524536
0.563383
0.598523
0.63171
0.66409
0.696376
0.728967
0.762199
0.796147
0.830836
0.866256
0.902381
0.939185
0.976643
1.01475
1.0535
1.09291
1.13301
1.17384
1.21543
1.25782
1.30108
1.34523
1.39031
1.43635
1.48337
1.53137
1.58035
1.63027
1.68112
1.73286
1.78543
1.83879
1.89288
1.94766
2.00308
2.05912
2.11574
2.17295
2.23075
2.28919
2.34831
2.40818
2.46891
2.53061
2.5934
2.65746
2.72292
2.78995
2.85869
2.92927
3.00176
3.07616
3.15233
3.23005
3.30889
3.3883
3.46755
3.54572
3.6217
3.69423
3.76191
3.82331
3.87699
3.92168
3.95629
3.98007
3.99271
3.99461
3.98539
3.96601
3.93753
3.90112
3.858
3.8094
3.75645
3.70013
3.64136
3.58084
3.5192
3.45691
3.39435
3.3318
3.26949
3.20751
3.14598
3.08495
3.02451
2.96468
2.9054
2.8466
2.78806
2.72925
2.66854
2.61165
2.55695
2.50311
2.44978
2.39694
2.3446
2.29282
2.24162
2.19104
2.14108
2.09177
2.04313
1.99515
1.94786
1.90126
1.85537
1.81017
1.7657
1.72195
1.67893
1.63666
1.59513
1.55435
1.51431
1.47504
1.43652
1.39878
1.36179
1.32557
1.29012
1.25545
1.22155
1.18843
1.15608
1.1245
1.0937
1.06369
1.0345
1.00618
0.978717
0.952131
0.926398
0.901501
0.877403
0.854083
0.831506
0.809646
0.788467
0.767947
0.748047
0.728746
0.709998
0.691781
0.674037
0.65673
0.6398
0.623186
0.606811
0.590566
0.574323
0.557824
0.540781
0.523154
0.505039
0.486649
0.468235
0.450109
0.432583
0.415981
0.400566
0.38648
0.373812
0.362519
0.352501
0.343619
0.335699
0.328579
0.322111
0.316185
0.310723
0.305697
0.301192
0.110615
0.324912
0.40591
0.463421
0.510485
0.551765
0.589654
0.625608
0.660576
0.695188
0.729752
0.764688
0.800119
0.836123
0.872752
0.910036
0.948
0.986671
1.02608
1.06627
1.10729
1.14919
1.19202
1.23587
1.28078
1.32682
1.37402
1.42243
1.47206
1.52292
1.57501
1.62828
1.68269
1.73819
1.7947
1.85214
1.9104
1.9694
2.02906
2.08927
2.14997
2.21109
2.27258
2.33443
2.39663
2.45921
2.52222
2.58574
2.6499
2.71484
2.78072
2.84776
2.91618
2.98622
3.05812
3.13212
3.20838
3.287
3.3679
3.4509
3.53561
3.62145
3.70757
3.7929
3.87603
3.95534
4.02903
4.09518
4.15193
4.19761
4.23086
4.25085
4.25748
4.2508
4.23166
4.20128
4.16122
4.11314
4.05865
3.99929
3.93635
3.87091
3.8039
3.736
3.66775
3.59956
3.53171
3.46441
3.39774
3.33175
3.2665
3.20204
3.13836
3.0754
3.01306
2.95114
2.88908
2.82515
2.76479
2.70668
2.64952
2.59295
2.53691
2.48142
2.42652
2.37223
2.31858
2.26558
2.21326
2.16161
2.11067
2.06044
2.01094
1.96216
1.91414
1.86686
1.82036
1.77461
1.72967
1.68549
1.64212
1.59953
1.55777
1.51679
1.47665
1.4373
1.39878
1.36108
1.32421
1.28816
1.25294
1.21855
1.18499
1.15226
1.12038
1.08939
1.0593
1.03011
1.00184
0.974456
0.947939
0.922263
0.897398
0.873324
0.850009
0.827421
0.805543
0.784335
0.763781
0.743836
0.724481
0.70567
0.687371
0.669536
0.652119
0.635059
0.618277
0.601676
0.585069
0.568168
0.550716
0.532755
0.514473
0.496081
0.477858
0.46009
0.443088
0.427119
0.412355
0.398911
0.38678
0.375894
0.366138
0.357351
0.349371
0.342049
0.335258
0.328902
0.322918
0.317384
0.102669
0.31097
0.390888
0.449235
0.498238
0.542101
0.582892
0.621823
0.659602
0.69669
0.733667
0.770765
0.808151
0.845951
0.884259
0.923156
0.962713
1.003
1.04407
1.08602
1.1289
1.17281
1.21783
1.26403
1.3115
1.3603
1.41049
1.46211
1.51519
1.56971
1.62567
1.68301
1.74165
1.80153
1.86253
1.92452
1.98739
2.05097
2.11516
2.1798
2.24477
2.30996
2.37527
2.44064
2.50602
2.57139
2.63677
2.70221
2.76781
2.83367
2.89999
2.96697
3.03487
3.10399
3.17466
3.24728
3.3222
3.39972
3.48007
3.5633
3.64937
3.738
3.82867
3.9205
4.01219
4.10205
4.18808
4.26791
4.33902
4.39892
4.44538
4.47673
4.49202
4.49135
4.47539
4.44543
4.4034
4.35147
4.29182
4.22649
4.15721
4.08536
4.01208
3.93819
3.86432
3.79087
3.71813
3.64629
3.5754
3.50548
3.43654
3.36859
3.3016
3.23548
3.17013
3.10534
3.04057
2.974
2.91071
2.84969
2.78968
2.73032
2.67151
2.61329
2.55566
2.49867
2.44231
2.38663
2.33162
2.2773
2.22371
2.17084
2.1187
2.06733
2.01672
1.96688
1.91784
1.86959
1.82216
1.77554
1.72976
1.68479
1.64069
1.59741
1.555
1.51344
1.47274
1.43291
1.39395
1.35587
1.31866
1.28234
1.24689
1.21234
1.1787
1.146
1.11425
1.08346
1.05362
1.0247
0.996696
0.96957
0.943302
0.917865
0.893237
0.869382
0.846278
0.82389
0.802197
0.781158
0.76075
0.740928
0.721669
0.702929
0.684671
0.666846
0.649397
0.632254
0.615279
0.598263
0.580836
0.562915
0.544664
0.526259
0.507945
0.489981
0.472655
0.456232
0.44089
0.426768
0.413883
0.402195
0.391612
0.381988
0.373171
0.365006
0.357366
0.35013
0.343225
0.336712
0.0957828
0.298924
0.378694
0.438611
0.490089
0.536949
0.580938
0.622857
0.663711
0.703959
0.743907
0.783799
0.823827
0.864145
0.904881
0.94615
0.988048
1.03066
1.07409
1.11841
1.16372
1.21011
1.25768
1.30651
1.3567
1.40833
1.46147
1.51616
1.57242
1.63028
1.68969
1.75061
1.81296
1.87663
1.94151
2.00742
2.07422
2.14173
2.20978
2.27817
2.34674
2.41532
2.48377
2.55197
2.61982
2.68725
2.75422
2.82073
2.88683
2.95258
3.01813
3.08365
3.14939
3.21563
3.28276
3.35122
3.42154
3.49419
3.56965
3.64828
3.7304
3.81624
3.9058
3.99879
4.09415
4.19059
4.28631
4.37878
4.465
4.54174
4.60555
4.65347
4.68326
4.69382
4.686
4.66047
4.61949
4.56586
4.50252
4.43218
4.3572
4.27944
4.20034
4.12092
4.04189
3.96369
3.88663
3.81083
3.73634
3.6631
3.5911
3.52029
3.45063
3.382
3.31426
3.24722
3.18035
3.11183
3.04626
2.98293
2.92064
2.85903
2.798
2.73755
2.67771
2.6185
2.55992
2.502
2.44475
2.38818
2.33234
2.27721
2.22283
2.1692
2.11634
2.06427
2.013
1.96253
1.9129
1.8641
1.81615
1.76903
1.7228
1.67743
1.63295
1.58935
1.54665
1.50485
1.46396
1.42399
1.38493
1.34681
1.30962
1.27337
1.2381
1.20382
1.17055
1.13827
1.10699
1.07667
1.04731
1.01888
0.991344
0.964695
0.938896
0.913917
0.889736
0.866306
0.843609
0.821599
0.800248
0.779515
0.759371
0.739775
0.720695
0.702096
0.683928
0.666147
0.64865
0.631283
0.61372
0.595719
0.577397
0.558907
0.540466
0.522297
0.504671
0.487842
0.471982
0.457246
0.443664
0.431225
0.419855
0.409422
0.399786
0.390794
0.382315
0.374221
0.366421
0.358964
0.0904393
0.289966
0.370896
0.433461
0.488138
0.538151
0.585567
0.631327
0.675977
0.719924
0.763479
0.806891
0.850362
0.894066
0.938148
0.982735
1.02794
1.07385
1.12057
1.16818
1.21676
1.26639
1.31718
1.3692
1.42253
1.47727
1.53348
1.59121
1.6505
1.71137
1.7738
1.83775
1.90313
1.96987
2.03781
2.10679
2.17664
2.24716
2.31814
2.38937
2.46063
2.53172
2.60244
2.67264
2.74214
2.81083
2.87861
2.94542
3.01124
3.07606
3.13994
3.203
3.26539
3.32735
3.38921
3.45139
3.51445
3.57896
3.64551
3.71466
3.78703
3.8633
3.94416
4.02937
4.11937
4.21431
4.31308
4.41372
4.51337
4.60812
4.69314
4.76303
4.81413
4.84365
4.85014
4.8349
4.79963
4.74777
4.68313
4.60946
4.52995
4.44716
4.36298
4.27871
4.19521
4.11297
4.03228
3.95326
3.87589
3.80009
3.72578
3.65288
3.5813
3.51089
3.4415
3.37293
3.30468
3.23497
3.16788
3.10294
3.03905
2.97586
2.91325
2.85122
2.78978
2.72895
2.66873
2.60914
2.5502
2.49193
2.43434
2.37746
2.3213
2.26588
2.21121
2.15732
2.10422
2.0519
2.00043
1.94978
1.89998
1.85102
1.80296
1.75576
1.70947
1.66407
1.6196
1.57605
1.53343
1.49175
1.45104
1.41129
1.37253
1.33475
1.29801
1.26231
1.22765
1.19403
1.16145
1.12988
1.0993
1.0697
1.04105
1.01333
0.986513
0.960557
0.935441
0.911117
0.887555
0.864707
0.842545
0.821015
0.800088
0.779722
0.759886
0.74055
0.721669
0.703219
0.685125
0.667281
0.649422
0.631223
0.612729
0.59407
0.575436
0.557032
0.539097
0.521873
0.505526
0.490211
0.475976
0.462822
0.450694
0.439473
0.429035
0.419231
0.409928
0.400995
0.392325
0.383961
0.0871288
0.285066
0.369071
0.435036
0.493601
0.548078
0.599941
0.650073
0.699052
0.747297
0.795128
0.842805
0.890546
0.938535
0.986926
1.03585
1.08541
1.1357
1.18679
1.23875
1.29164
1.34551
1.40043
1.45647
1.51366
1.5721
1.63183
1.69291
1.75537
1.81924
1.88452
1.95118
2.01914
2.08835
2.15866
2.22993
2.30197
2.37459
2.44758
2.52069
2.59369
2.66635
2.73845
2.80977
2.88012
2.94931
3.01719
3.08364
3.14855
3.21184
3.27349
3.33348
3.39187
3.44877
3.50438
3.55901
3.61313
3.66726
3.72196
3.77775
3.83531
3.89546
3.95915
4.02756
4.10193
4.18367
4.27364
4.37174
4.47646
4.58428
4.69062
4.78665
4.8663
4.92407
4.95461
4.95696
4.93403
4.88895
4.82664
4.75213
4.66986
4.58333
4.49513
4.40696
4.31989
4.23449
4.15105
4.06966
3.99027
3.91276
3.83699
3.76284
3.69017
3.61882
3.5486
3.47931
3.41048
3.34042
3.27266
3.2069
3.1422
3.07819
3.01475
2.95187
2.88955
2.8278
2.76662
2.70604
2.64606
2.58671
2.528
2.46996
2.41259
2.35592
2.29997
2.24476
2.1903
2.13661
2.08373
2.03165
1.9804
1.92997
1.88043
1.83173
1.78394
1.73704
1.69106
1.64602
1.60191
1.55877
1.51661
1.47545
1.43531
1.3962
1.35817
1.32121
1.28533
1.25053
1.2168
1.18411
1.15247
1.12184
1.09222
1.06357
1.03586
1.00907
0.98315
0.958061
0.933766
0.910207
0.887354
0.865143
0.84354
0.822501
0.801991
0.781981
0.762429
0.743326
0.724613
0.706219
0.687954
0.669454
0.650693
0.631782
0.612893
0.594202
0.575931
0.558304
0.541475
0.525602
0.510732
0.496882
0.484012
0.472018
0.460785
0.450173
0.440056
0.430296
0.420781
0.411539
0.0863821
0.284617
0.37421
0.446055
0.510149
0.56985
0.626765
0.681845
0.735719
0.788842
0.841563
0.89416
0.946863
0.999865
1.05332
1.10737
1.1621
1.21761
1.27394
1.33114
1.38925
1.44827
1.50825
1.5692
1.63114
1.69411
1.75814
1.82325
1.88947
1.95681
2.02527
2.09484
2.16544
2.23703
2.30949
2.38269
2.45645
2.5306
2.60494
2.67921
2.75319
2.82664
2.89931
2.97098
3.04141
3.11038
3.17771
3.2432
3.30669
3.36802
3.42705
3.48367
3.5378
3.58938
3.63845
3.68515
3.72975
3.77266
3.81421
3.8547
3.89457
3.93447
3.97545
4.0189
4.0669
4.12234
4.18822
4.26735