/*--------------------------------*- C++ -*----------------------------------*\
  =========                 |
  \\      /  F ield         | OpenFOAM: The Open Source CFD Toolbox
   \\    /   O peration     | Website:  https://openfoam.org
    \\  /    A nd           | Version:  7
     \\/     M anipulation  |
\*---------------------------------------------------------------------------*/
FoamFile
{
    version     2.0;
    format      ascii;
    class       volScalarField;
    location    "100";
    object      nut;
}
// * * * * * * * * * * * * * * * * * * * * * * * * * * * * * * * * * * * * * //

dimensions      [0 2 -1 0 0 0 0];

internalField   nonuniform List<scalar> 
48900
(
0.000143016
8.81817e-06
7.6165e-06
7.6682e-06
9.04547e-06
1.11173e-05
1.28818e-05
1.40709e-05
1.47884e-05
1.52157e-05
1.54886e-05
1.5683e-05
1.58354e-05
1.59651e-05
1.60784e-05
1.61771e-05
1.62654e-05
1.63914e-05
0.000681032
0.000121954
8.82677e-05
6.77581e-05
5.8899e-05
5.56136e-05
5.49883e-05
5.55683e-05
5.67053e-05
5.81295e-05
5.97184e-05
6.13816e-05
6.30741e-05
6.47631e-05
6.64211e-05
6.80262e-05
6.95677e-05
7.10282e-05
0.000867766
0.000385863
0.000257531
0.000195458
0.000155346
0.000125861
0.000104642
8.97839e-05
7.96457e-05
7.28522e-05
6.84236e-05
6.56756e-05
6.41423e-05
6.34991e-05
6.35156e-05
6.40169e-05
6.48711e-05
6.59435e-05
0.000860772
0.000701893
0.000532651
0.000427642
0.000357809
0.000306092
0.000265554
0.000232945
0.000206529
0.00018503
0.000167491
0.000153097
0.000141211
0.000131393
0.000123117
0.000116212
0.000110441
0.000105612
0.000853556
0.000826115
0.000739945
0.000651148
0.000577668
0.000517895
0.00046869
0.000427388
0.000392267
0.000362167
0.000336226
0.000313761
0.000294205
0.00027709
0.000262038
0.000248746
0.000236979
0.000226522
0.000852168
0.000848537
0.000827
0.00078399
0.000735602
0.000688721
0.000645769
0.000607115
0.000572498
0.000541521
0.000513787
0.00048893
0.000466616
0.00044655
0.00042847
0.000412162
0.000397463
0.000384248
0.000851912
0.000851696
0.000847561
0.000835936
0.000815092
0.000789653
0.000762458
0.000735243
0.000708917
0.000683927
0.000660463
0.000638578
0.000618252
0.000599422
0.000582013
0.000565953
0.000551192
0.000537753
0.000851897
0.000851668
0.000851177
0.000848781
0.000842929
0.000833618
0.000821088
0.000806751
0.000791332
0.000775495
0.000759647
0.000744078
0.000728976
0.000714457
0.000700593
0.000687432
0.000675021
0.000663467
0.000851894
0.000851575
0.000851337
0.000850919
0.000849742
0.000847234
0.000843108
0.000837521
0.00083064
0.000822856
0.000814384
0.000805483
0.000796382
0.000787205
0.00077808
0.0007691
0.000760355
0.000751967
0.000851892
0.000851541
0.00085124
0.000850985
0.000850671
0.00085009
0.000849031
0.000847365
0.000845023
0.000842054
0.000838511
0.000834471
0.000830066
0.000825359
0.000820442
0.000815387
0.000810249
0.000805064
0.000851889
0.000851518
0.000851184
0.000850889
0.000850623
0.000850351
0.00085001
0.000849527
0.000848839
0.000847903
0.000846699
0.000845224
0.000843495
0.000841535
0.000839373
0.000837041
0.000834577
0.000832042
0.000851887
0.000851502
0.000851149
0.000850827
0.000850534
0.000850264
0.000850004
0.000849735
0.000849434
0.000849074
0.000848635
0.0008481
0.00084746
0.00084671
0.000845851
0.00084489
0.000843837
0.000842711
0.000851885
0.000851491
0.000851126
0.000850789
0.000850479
0.00085019
0.000849919
0.000849663
0.000849414
0.000849164
0.000848904
0.000848625
0.000848317
0.000847974
0.000847592
0.000847167
0.0008467
0.000846194
0.000851884
0.000851482
0.000851107
0.000850758
0.000850435
0.000850131
0.000849846
0.000849577
0.000849322
0.000849078
0.000848843
0.000848615
0.00084839
0.000848164
0.000847935
0.0008477
0.000847457
0.000847206
0.000851883
0.000851474
0.000851091
0.000850734
0.0008504
0.000850087
0.000849791
0.000849511
0.000849245
0.000848992
0.00084875
0.000848519
0.000848297
0.000848083
0.000847877
0.000847677
0.000847483
0.000847293
0.000851882
0.000851468
0.000851079
0.000850715
0.000850374
0.000850053
0.00084975
0.000849463
0.00084919
0.00084893
0.000848682
0.000848444
0.000848217
0.000848
0.000847791
0.000847591
0.0008474
0.000847216
0.000851881
0.000851464
0.000851071
0.000850702
0.000850355
0.000850029
0.000849721
0.00084943
0.000849153
0.000848889
0.000848637
0.000848397
0.000848168
0.000847948
0.000847739
0.000847538
0.000847346
0.000847164
0.000851881
0.000851461
0.000851066
0.000850693
0.000850344
0.000850014
0.000849704
0.00084941
0.000849131
0.000848866
0.000848614
0.000848373
0.000848144
0.000847925
0.000847717
0.000847518
0.000847328
0.000847147
0.000851881
0.00085146
0.000851063
0.00085069
0.00085034
0.00085001
0.000849699
0.000849406
0.000849127
0.000848863
0.000848613
0.000848374
0.000848147
0.00084793
0.000847725
0.000847529
0.000847343
0.000847165
0.000851881
0.000851461
0.000851066
0.000850695
0.000850347
0.000850021
0.000849713
0.000849423
0.000849149
0.000848889
0.000848642
0.000848407
0.000848184
0.000847973
0.000847771
0.00084758
0.000847398
0.000847226
0.000851882
0.000851464
0.000851072
0.000850706
0.000850364
0.000850043
0.000849742
0.000849457
0.000849189
0.000848934
0.000848693
0.000848464
0.000848247
0.000848041
0.000847844
0.000847658
0.00084748
0.00084731
0.000851883
0.00085147
0.000851084
0.000850726
0.000850393
0.000850082
0.00084979
0.000849516
0.000849256
0.00084901
0.000848774
0.000848547
0.000848326
0.000848109
0.000847894
0.000847678
0.000847461
0.00084724
0.000851885
0.000851479
0.000851104
0.000850759
0.000850442
0.000850147
0.000849867
0.00084959
0.000849301
0.000848986
0.000848631
0.000848225
0.000847761
0.000847235
0.000846646
0.000845995
0.000845284
0.000844516
0.000851891
0.000851494
0.000851138
0.00085082
0.000850507
0.000850128
0.000849587
0.000848797
0.000847701
0.000846277
0.000844528
0.000842476
0.000840157
0.000837609
0.000834874
0.00083199
0.00082899
0.000825898
0.000851918
0.000851534
0.000851207
0.000850645
0.000849344
0.000846724
0.00084279
0.000837539
0.000831146
0.000824063
0.000816356
0.000808291
0.00080003
0.000791698
0.000783391
0.00077518
0.000767113
0.000759208
0.000852155
0.00085174
0.000849742
0.000843013
0.000831158
0.000814753
0.000796172
0.000776615
0.000756947
0.000737659
0.000719012
0.000701143
0.000684117
0.000667959
0.000652667
0.000638223
0.000624591
0.000611713
0.000854648
0.000847077
0.000821436
0.000777234
0.000730168
0.000685932
0.000645978
0.00061016
0.000577945
0.00054881
0.000522351
0.000498263
0.00047631
0.000456291
0.000438029
0.000421357
0.000406119
0.000392156
0.000865898
0.000775092
0.000646695
0.000551706
0.000484124
0.000431966
0.000389535
0.00035368
0.000322744
0.000295898
0.000272606
0.00025244
0.000235013
0.00021996
0.000206945
0.000195676
0.000185879
0.000177361
0.000583406
0.000421683
0.000302166
0.000244335
0.00020523
0.000174848
0.000150792
0.000132271
0.000118242
0.000107832
0.000100207
9.46666e-05
9.0672e-05
8.78243e-05
8.58344e-05
8.44922e-05
8.36441e-05
8.31766e-05
1.80951e-05
0.000109927
8.46238e-05
7.46222e-05
7.40831e-05
7.56147e-05
7.68349e-05
7.7293e-05
7.71954e-05
7.68492e-05
7.64742e-05
7.61863e-05
7.60291e-05
7.6006e-05
7.61019e-05
7.62952e-05
7.65637e-05
7.68871e-05
6.51823e-07
7.05275e-06
1.2224e-05
1.57187e-05
1.92231e-05
2.40833e-05
3.14857e-05
4.14171e-05
5.27936e-05
6.44875e-05
7.57354e-05
8.61997e-05
9.56795e-05
0.000104246
0.00011197
0.000118927
0.000125257
0.000130993
0.000136246
0.000141022
0.000145486
0.000149712
0.000153688
0.000157476
0.000161135
0.000164626
0.000167987
0.000171216
0.00017431
0.00017726
0.000180054
0.000182674
0.000185097
0.000187293
0.000189191
0.000190823
0.000192115
0.000192998
0.000193547
0.000193729
0.000193808
0.000193925
0.000194493
0.000195916
0.000198014
4.75591e-05
4.79616e-05
4.85116e-05
4.89595e-05
4.94007e-05
4.98447e-05
5.02788e-05
5.07156e-05
5.11378e-05
5.1546e-05
5.18517e-05
5.21183e-05
5.259e-05
5.23697e-05
5.29312e-05
5.40253e-05
5.41123e-05
5.30871e-05
5.27468e-05
5.43346e-05
5.40979e-05
5.35329e-05
5.28837e-05
5.35673e-05
5.13034e-05
5.08898e-05
5.11576e-05
5.0961e-05
5.03048e-05
5.03459e-05
5.18352e-05
5.05683e-05
4.6968e-05
4.62079e-05
4.47682e-05
4.69879e-05
4.74277e-05
4.73552e-05
4.89758e-05
4.67761e-05
4.74718e-05
4.65479e-05
4.6555e-05
0.00023401
0.000220398
0.000208044
4.0813e-05
0.000246317
0.000239194
0.00022219
0.000198178
0.000166413
2.76644e-05
3.15402e-05
0.000232362
0.000225028
0.000206306
0.000178232
0.000155182
0.000196012
0.000202074
0.000198378
0.000194013
0.000189639
0.000185325
0.000181034
0.000176888
0.000172702
0.000168569
0.000164499
0.000160577
0.000156651
0.000152797
0.000149011
0.000145393
0.000141695
0.000137819
0.000133903
0.000130169
0.000126593
0.000122958
0.000119325
0.000115825
0.000112403
0.00010915
0.000105902
0.000102771
9.97601e-05
9.68326e-05
9.40489e-05
9.13933e-05
8.89361e-05
8.66463e-05
8.45536e-05
8.26391e-05
8.08594e-05
7.92129e-05
7.76331e-05
7.60408e-05
7.44083e-05
7.2712e-05
7.08624e-05
6.88472e-05
6.66393e-05
6.42383e-05
6.16508e-05
5.89378e-05
5.62077e-05
5.3475e-05
5.08657e-05
4.84629e-05
4.63195e-05
4.44695e-05
4.29063e-05
4.15807e-05
4.05135e-05
3.96578e-05
3.89536e-05
3.83617e-05
3.78636e-05
3.74495e-05
3.69799e-05
3.67939e-05
3.66501e-05
3.61269e-05
3.58932e-05
3.58887e-05
3.60684e-05
3.5812e-05
3.55984e-05
3.5471e-05
3.56312e-05
3.59881e-05
3.63214e-05
3.65356e-05
2.53193e-06
7.56903e-05
0.000136112
0.000167489
0.000182711
0.000192116
0.000201892
0.000213906
0.000227454
0.000241691
0.00025625
0.000270912
0.000285633
0.000300444
0.000315185
0.000329804
0.000344313
0.00035871
0.000372977
0.000387089
0.000400983
0.000414603
0.000427908
0.000440884
0.000453539
0.000465907
0.00047803
0.00048989
0.000501277
0.000512157
0.000522454
0.000532074
0.000540897
0.000548774
0.000555447
0.00056061
0.000563905
0.00056515
0.00056393
0.000559901
0.000552358
0.000541797
0.000528633
0.000516154
0.000510086
0.000521484
0.000535197
0.000549304
0.00056328
0.000577697
0.000592181
0.000606922
0.000621382
0.000634091
0.000646758
0.000659335
0.000671558
0.000682488
0.000692473
0.000701773
0.000713955
0.00072707
0.000737505
0.000747248
0.000757302
0.000766794
0.000773178
0.000780422
0.000787369
0.000794267
0.000802989
0.00080942
0.000812024
0.000810412
0.000805478
0.000791797
0.000779682
0.000767685
0.000768692
0.000767423
0.000759808
0.000729721
0.000678785
0.000658776
0.000657832
0.000661702
0.000683898
0.000742557
0.000832778
0.000790738
0.000681048
0.000652938
0.00083425
0.000852759
0.000814564
0.000744417
0.000639118
0.000480847
0.000504532
0.000739155
0.000793184
0.000777687
0.000725694
0.000621071
0.000673086
0.000745189
0.000744941
0.000735666
0.000725342
0.000714965
0.000704606
0.000694301
0.000684012
0.000673766
0.000663554
0.000653453
0.000643403
0.000633453
0.0006236
0.000613847
0.000604344
0.000595003
0.000585742
0.000576678
0.000567996
0.000559356
0.000550931
0.000543099
0.000535583
0.000528252
0.000520719
0.000513349
0.00050625
0.000499235
0.00049224
0.000485456
0.000478976
0.000472837
0.000467162
0.000461976
0.000457229
0.000452909
0.000448823
0.000444887
0.00044084
0.000436479
0.000431477
0.000425453
0.000418067
0.000408898
0.000397688
0.000384337
0.000368968
0.000351941
0.000333886
0.000315586
0.000297815
0.00028123
0.000266423
0.000253467
0.000242411
0.000233167
0.000225499
0.00021908
0.000213739
0.000209299
0.000205397
0.000202472
0.000199711
0.000196894
0.000194336
0.000192357
0.000191866
0.000191024
0.000188699
0.000186703
0.000186366
0.000185961
0.000184991
0.000183717
5.00662e-06
0.000124376
0.000215508
0.000264991
0.000291423
0.000308481
0.000323938
0.000340741
0.000359252
0.000379142
0.000400087
0.000421692
0.000444061
0.000466991
0.00049023
0.000513627
0.000537061
0.000560376
0.000583463
0.00060621
0.000628534
0.000650355
0.000671606
0.000692264
0.000712278
0.000731622
0.000750229
0.000768141
0.000785387
0.000802082
0.000818046
0.000833216
0.000847547
0.000861083
0.000873854
0.000885796
0.000897276
0.000908609
0.000919891
0.00093158
0.000944098
0.000958346
0.000975061
0.000994847
0.00101764
0.00104195
0.00106587
0.0010895
0.00111282
0.00113586
0.0011586
0.00118097
0.00120292
0.0012245
0.00124568
0.00126636
0.00128644
0.00130584
0.00132473
0.00134316
0.00136076
0.00137727
0.00139265
0.00140686
0.00142
0.00143156
0.00144234
0.00145182
0.00145695
0.00145839
0.00146478
0.00147149
0.00147244
0.0014705
0.00146574
0.00145869
0.00145169
0.00144619
0.00144183
0.00143575
0.00142514
0.00140779
0.00138832
0.00137259
0.00136218
0.00135547
0.00135733
0.00136655
0.00136763
0.00134437
0.00131342
0.00131228
0.00133331
0.00132321
0.00129772
0.00126216
0.00121693
0.00117397
0.0011786
0.00123007
0.00123917
0.0012222
0.00119447
0.00116221
0.0011682
0.00118375
0.0011769
0.00116343
0.00114873
0.00113386
0.001119
0.00110415
0.00108932
0.00107452
0.00105977
0.00104508
0.00103048
0.00101597
0.00100161
0.000987454
0.000973379
0.000959448
0.000945661
0.000932018
0.000918622
0.000905413
0.000892435
0.000879775
0.000867454
0.000855555
0.00084415
0.000833505
0.000823796
0.000814789
0.000806417
0.000798878
0.000791943
0.000785623
0.000780175
0.000775429
0.000771352
0.000767845
0.000764688
0.000761699
0.000758569
0.000754986
0.000750529
0.000744622
0.000736748
0.000726221
0.000712461
0.000695007
0.000673613
0.000648374
0.00061974
0.000588554
0.0005559
0.000523066
0.000491306
0.000461715
0.000435021
0.000411557
0.000391456
0.000374505
0.000360413
0.000348706
0.000338919
0.00033075
0.000323957
0.000318209
0.000313077
0.000308676
0.000305104
0.000302348
0.000299142
0.000295667
0.000292761
0.000290168
0.000287702
0.000285214
7.32294e-06
0.000161887
0.00027926
0.000345738
0.000383333
0.000407929
0.000428904
0.000450572
0.000474225
0.00049985
0.000526876
0.000555537
0.000585072
0.000615168
0.000645556
0.000676004
0.000706309
0.000736287
0.000765813
0.000794783
0.000823116
0.000850745
0.000877644
0.000903877
0.000929202
0.000953579
0.000977081
0.000999911
0.0010221
0.00104363
0.00106466
0.00108534
0.00110581
0.00112616
0.00114657
0.00116718
0.00118823
0.00120991
0.00123243
0.00125601
0.00128071
0.00130656
0.00133374
0.00136183
0.00139031
0.00141871
0.00144683
0.00147448
0.00150169
0.00152846
0.00155483
0.00158077
0.00160626
0.00163128
0.00165577
0.00167966
0.00170291
0.0017254
0.00174706
0.00176773
0.00178725
0.00180549
0.00182233
0.00183771
0.00185153
0.00186381
0.00187445
0.00188318
0.00188957
0.00189286
0.00189661
0.00190111
0.00190199
0.00190027
0.00189651
0.00189108
0.00188457
0.00187743
0.0018697
0.00186092
0.00185054
0.00183819
0.00182443
0.0018101
0.00179579
0.00178196
0.00176957
0.00175824
0.00174557
0.00172992
0.00171339
0.0016998
0.00168705
0.00167032
0.00165123
0.00163123
0.00161101
0.00159393
0.00158082
0.00157362
0.00156144
0.00154489
0.0015273
0.0015112
0.00150076
0.00149097
0.00147645
0.0014596
0.0014421
0.00142449
0.00140686
0.00138923
0.00137162
0.00135405
0.00133652
0.00131905
0.00130167
0.00128437
0.00126721
0.00125019
0.00123325
0.00121642
0.00119974
0.00118321
0.00116687
0.00115071
0.00113479
0.00111911
0.00110371
0.00108866
0.00107401
0.00105993
0.00104644
0.00103395
0.00102324
0.00101457
0.00100806
0.00100367
0.00100111
0.000999899
0.000999888
0.00100042
0.00100128
0.00100236
0.0010033
0.00100383
0.0010035
0.00100175
0.000997984
0.000991544
0.000981791
0.000967948
0.000949461
0.000926004
0.00089742
0.000864079
0.000826476
0.000785775
0.000743209
0.000700431
0.000658969
0.000619837
0.000584217
0.000553101
0.000526011
0.000502985
0.000484463
0.000468944
0.000455761
0.000444712
0.000435151
0.000428253
0.000421563
0.000417451
0.00041208
0.000406802
0.000402006
0.00039548
0.000390043
0.000384454
9.12999e-06
0.000188831
0.000328449
0.000411788
0.000461989
0.000495724
0.00052341
0.000550551
0.000579216
0.000610014
0.000642785
0.000676897
0.000711862
0.000747276
0.000782805
0.0008182
0.000853248
0.000887803
0.000921757
0.000955035
0.000987583
0.00101931
0.00104996
0.00107984
0.00110896
0.00113732
0.00116499
0.00119201
0.0012185
0.00124457
0.00127035
0.00129602
0.00132171
0.00134757
0.00137374
0.00140034
0.00142748
0.00145524
0.00148363
0.00151264
0.00154221
0.00157214
0.00160221
0.00163222
0.00166199
0.0016914
0.00172038
0.00174888
0.00177693
0.00180453
0.00183167
0.00185837
0.00188461
0.00191032
0.0019355
0.00196005
0.00198388
0.00200693
0.00202908
0.0020502
0.0020702
0.00208895
0.00210635
0.0021223
0.00213674
0.00214958
0.00216073
0.00217003
0.00217719
0.002182
0.00218399
0.002188
0.00218932
0.00218775
0.00218415
0.00217883
0.002172
0.00216383
0.00215446
0.00214394
0.00213226
0.00211938
0.00210542
0.00209058
0.0020751
0.00205919
0.0020431
0.00202696
0.00201056
0.00199367
0.00197624
0.00195848
0.00194033
0.00192161
0.0019026
0.00188348
0.00186435
0.00184543
0.0018274
0.0018101
0.00179254
0.00177472
0.00175707
0.0017398
0.00172291
0.00170549
0.00168693
0.00166767
0.00164818
0.00162862
0.00160906
0.00158952
0.00157
0.00155053
0.00153111
0.00151177
0.0014925
0.00147333
0.00145428
0.00143535
0.00141653
0.00139784
0.0013793
0.00136091
0.0013427
0.00132467
0.00130687
0.00128929
0.00127198
0.00125495
0.00123827
0.00122198
0.00120619
0.00119111
0.00117727
0.00116586
0.00115816
0.00115403
0.00115292
0.00115422
0.00115764
0.0011624
0.00116821
0.0011746
0.00118111
0.0011874
0.00119271
0.00119685
0.00119915
0.00119918
0.00119626
0.00118962
0.00117851
0.00116236
0.00114065
0.00111313
0.00107972
0.00104082
0.000997063
0.000949803
0.000900611
0.000850891
0.000802427
0.000757729
0.000717913
0.000681943
0.000650238
0.000623896
0.000601085
0.000582657
0.00056733
0.000555221
0.000544511
0.000536986
0.000531539
0.000527599
0.000521778
0.000511934
0.000504966
0.000494427
1.02925e-05
0.000205765
0.00036354
0.000462466
0.000526183
0.000570665
0.000606616
0.000639774
0.000673904
0.000709607
0.000746826
0.00078514
0.000824101
0.000863303
0.000902423
0.000941225
0.000979541
0.00101725
0.00105426
0.00109053
0.00112603
0.00116077
0.00119444
0.00122715
0.00125913
0.00129054
0.0013214
0.00135174
0.00138162
0.00141117
0.0014405
0.00146973
0.00149898
0.00152836
0.00155794
0.00158778
0.00161791
0.00164829
0.00167887
0.00170957
0.00174027
0.00177084
0.00180115
0.00183112
0.00186068
0.00188979
0.00191844
0.00194663
0.00197437
0.00200166
0.00202853
0.00205496
0.00208095
0.00210647
0.0021315
0.00215596
0.00217981
0.00220295
0.00222532
0.00224678
0.00226726
0.00228663
0.00230479
0.00232162
0.00233703
0.00235091
0.00236317
0.00237368
0.00238229
0.00238865
0.00239203
0.00239436
0.0023971
0.00239622
0.00239311
0.00238809
0.00238133
0.00237295
0.00236307
0.00235183
0.00233931
0.00232561
0.00231085
0.00229516
0.00227869
0.00226157
0.00224394
0.00222589
0.00220747
0.00218866
0.00216941
0.00214974
0.00212969
0.00210933
0.00208864
0.00206757
0.00204609
0.00202425
0.00200385
0.00198386
0.00196395
0.00194404
0.0019241
0.00190407
0.00188383
0.00186327
0.00184237
0.00182126
0.00180007
0.00177887
0.00175769
0.00173654
0.00171544
0.00169441
0.00167344
0.00165256
0.00163178
0.00161109
0.00159055
0.00157012
0.00154984
0.0015297
0.00150973
0.00148991
0.00147029
0.00145086
0.00143165
0.00141268
0.00139396
0.00137551
0.00135738
0.00133962
0.00132228
0.00130557
0.00128988
0.00127616
0.00126652
0.00126179
0.00126109
0.00126359
0.00126877
0.00127594
0.00128471
0.00129453
0.001305
0.00131591
0.00132647
0.00133663
0.00134546
0.00135252
0.00135709
0.00135857
0.00135606
0.00134901
0.00133675
0.00131862
0.00129415
0.00126309
0.0012254
0.00118167
0.00113287
0.00108041
0.00102601
0.000972458
0.000921965
0.000875553
0.000833875
0.000797446
0.000764551
0.00073498
0.000710926
0.000691949
0.000673754
0.000660434
0.000648355
0.000647929
0.000641251
0.000631671
0.000626805
0.000618459
1.08455e-05
0.000214237
0.000385518
0.000498779
0.000575855
0.000631311
0.000676243
0.000717138
0.000757009
0.000797328
0.000838434
0.000880161
0.000922187
0.000964183
0.0010059
0.00104713
0.00108775
0.00112765
0.00116679
0.00120514
0.00124268
0.00127941
0.00131536
0.00135061
0.00138509
0.0014186
0.00145158
0.00148425
0.00151657
0.00154857
0.00158031
0.00161187
0.00164331
0.00167472
0.0017061
0.00173747
0.00176882
0.00180008
0.00183121
0.00186212
0.00189273
0.00192296
0.00195277
0.0019821
0.00201096
0.00203933
0.00206725
0.00209472
0.00212177
0.00214843
0.00217471
0.00220062
0.00222618
0.00225135
0.00227615
0.00230052
0.00232441
0.00234776
0.00237049
0.00239249
0.00241367
0.00243391
0.0024531
0.00247111
0.00248782
0.00250311
0.00251685
0.00252891
0.00253912
0.00254725
0.00255236
0.00255583
0.00255994
0.00256039
0.0025584
0.00255427
0.00254816
0.00254018
0.00253046
0.00251911
0.00250627
0.00249209
0.00247669
0.00246022
0.00244282
0.00242461
0.00240573
0.00238627
0.00236629
0.00234584
0.00232495
0.00230365
0.00228195
0.00225986
0.00223731
0.00221421
0.0021905
0.00216629
0.00214384
0.00212184
0.00209987
0.00207781
0.00205563
0.00203329
0.00201078
0.00198814
0.00196539
0.00194259
0.00191978
0.00189699
0.00187424
0.00185156
0.00182895
0.00180642
0.00178399
0.00176166
0.00173945
0.00171737
0.00169543
0.00167364
0.00165202
0.00163056
0.00160929
0.00158819
0.00156732
0.00154664
0.00152621
0.00150602
0.00148609
0.00146645
0.00144712
0.00142814
0.00140959
0.00139163
0.00137468
0.00135965
0.00134867
0.00134327
0.00134243
0.00134523
0.0013511
0.00135929
0.00136943
0.00138097
0.00139357
0.00140685
0.00142037
0.00143403
0.00144707
0.00145922
0.00146998
0.00147893
0.00148478
0.00148673
0.00148424
0.00147624
0.00146211
0.00144121
0.00141299
0.00137739
0.00133462
0.00128557
0.00123177
0.00117552
0.0011195
0.00106583
0.00101606
0.000971059
0.000931127
0.000895707
0.000863992
0.000838221
0.000814221
0.000793181
0.000772439
0.000761182
0.000750279
0.000744883
0.000738143
0.000735107
1.08541e-05
0.000215805
0.000395805
0.000520919
0.000610348
0.0006781
0.000733359
0.000782244
0.000828352
0.000873509
0.000918438
0.000963285
0.00100793
0.0010522
0.00109592
0.00113897
0.00118125
0.00122272
0.00126335
0.00130314
0.00134212
0.00138029
0.00141771
0.00145444
0.00149052
0.00152603
0.00156083
0.00159498
0.00162894
0.00166259
0.00169592
0.00172898
0.00176179
0.00179437
0.00182672
0.00185883
0.00189067
0.00192218
0.00195333
0.00198405
0.0020143
0.00204404
0.00207325
0.00210193
0.00213008
0.00215774
0.00218492
0.00221167
0.00223802
0.002264
0.00228965
0.00231501
0.00234009
0.00236489
0.00238941
0.00241365
0.00243755
0.00246106
0.00248412
0.00250663
0.00252849
0.0025496
0.00256983
0.00258906
0.00260716
0.00262398
0.00263941
0.00265331
0.00266554
0.00267589
0.00268316
0.00268854
0.00269449
0.00269691
0.00269673
0.00269424
0.00268952
0.00268264
0.00267375
0.00266292
0.00265033
0.00263611
0.00262044
0.00260347
0.00258536
0.00256626
0.00254631
0.00252562
0.00250427
0.00248235
0.00245993
0.00243703
0.00241369
0.0023899
0.00236559
0.00234062
0.00231492
0.00228852
0.00226408
0.00224012
0.00221617
0.00219212
0.00216793
0.00214362
0.00211921
0.00209475
0.00207027
0.00204579
0.00202134
0.00199695
0.00197263
0.0019484
0.00192426
0.00190022
0.00187631
0.00185252
0.00182888
0.00180539
0.00178207
0.00175892
0.00173597
0.0017132
0.00169064
0.00166829
0.00164618
0.00162429
0.00160267
0.00158131
0.00156023
0.00153945
0.001519
0.00149891
0.00147926
0.00146023
0.00144227
0.00142642
0.001415
0.00140919
0.00140801
0.00141058
0.00141635
0.00142458
0.00143494
0.00144691
0.00146018
0.00147435
0.00148909
0.00150429
0.00151941
0.00153424
0.00154835
0.00156151
0.00157307
0.00158222
0.00158827
0.00158953
0.00158524
0.00157448
0.00155638
0.00153044
0.00149635
0.00145422
0.00140525
0.00135127
0.00129461
0.00123783
0.00118321
0.00113242
0.00108643
0.00104565
0.0010095
0.000977995
0.000950169
0.000925621
0.000900613
0.000878007
0.000860253
0.000844838
0.000837677
0.000837238
1.05535e-05
0.000213291
0.000398775
0.000534406
0.000635062
0.000713559
0.000778771
0.000836388
0.000889439
0.000939996
0.00098911
0.00103723
0.00108448
0.00113086
0.00117631
0.00122082
0.00126435
0.00130692
0.00134856
0.00138931
0.00142921
0.00146832
0.0015067
0.00154443
0.00158155
0.00161811
0.0016542
0.00168964
0.00172473
0.00175952
0.00179397
0.00182806
0.0018618
0.00189518
0.00192817
0.00196077
0.00199292
0.00202458
0.00205572
0.0020863
0.00211628
0.00214565
0.0021744
0.00220255
0.00223011
0.00225711
0.0022836
0.00230962
0.00233521
0.00236042
0.00238531
0.00240992
0.00243427
0.00245842
0.00248236
0.00250611
0.00252966
0.00255296
0.00257597
0.0025986
0.00262078
0.0026424
0.00266335
0.00268351
0.00270276
0.00272095
0.00273797
0.00275368
0.00276799
0.00278076
0.00279074
0.00279862
0.00280676
0.00281177
0.00281423
0.00281424
0.00281182
0.002807
0.00279983
0.00279041
0.00277885
0.00276531
0.00274998
0.00273303
0.00271465
0.00269503
0.00267433
0.00265267
0.0026302
0.00260701
0.00258321
0.00255886
0.00253401
0.00250866
0.00248274
0.00245611
0.00242862
0.0024002
0.00237384
0.00234801
0.00232219
0.00229627
0.00227024
0.00224412
0.00221794
0.00219175
0.00216557
0.00213943
0.00211334
0.00208732
0.0020614
0.00203559
0.00200989
0.00198433
0.0019589
0.00193364
0.00190854
0.00188362
0.00185889
0.00183437
0.00181006
0.00178597
0.00176211
0.00173849
0.00171514
0.00169203
0.00166922
0.00164669
0.00162447
0.00160257
0.00158102
0.00155985
0.00153915
0.00151914
0.00150035
0.00148404
0.00147277
0.00146675
0.00146514
0.00146714
0.0014723
0.00147991
0.00148968
0.00150114
0.00151401
0.00152793
0.00154262
0.00155801
0.00157365
0.0015894
0.00160488
0.00162002
0.00163439
0.00164737
0.00165857
0.00166693
0.00167113
0.00166944
0.00166074
0.00164417
0.00161906
0.00158519
0.00154313
0.00149419
0.00144034
0.00138402
0.00132783
0.00127403
0.00122403
0.00117884
0.00113862
0.0011031
0.00107194
0.00104414
0.00101917
0.000994879
0.000970416
0.000948155
0.000932629
0.000922106
1.00006e-05
0.000207405
0.000395472
0.00053957
0.000651156
0.000741005
0.000816626
0.000882939
0.000943066
0.000999775
0.00105378
0.00110571
0.00115592
0.00120458
0.0012518
0.00129765
0.00134223
0.00138561
0.0014279
0.00146919
0.00150959
0.00154919
0.00158809
0.00162636
0.00166407
0.00170129
0.00173804
0.00177436
0.00181028
0.00184587
0.00188112
0.00191598
0.00195043
0.00198445
0.002018
0.00205102
0.0020835
0.00211536
0.00214658
0.00217712
0.00220695
0.00223605
0.00226443
0.00229209
0.00231905
0.00234535
0.00237102
0.00239611
0.00242069
0.00244479
0.0024685
0.00249187
0.00251496
0.00253782
0.00256052
0.00258308
0.00260552
0.00262785
0.00265005
0.00267206
0.00269383
0.00271528
0.00273632
0.00275684
0.00277672
0.00279584
0.00281408
0.00283132
0.00284742
0.00286227
0.00287532
0.00288619
0.002897
0.00290526
0.00291115
0.00291465
0.00291565
0.00291405
0.00290981
0.00290295
0.00289354
0.00288172
0.00286765
0.00285154
0.00283362
0.00281408
0.00279316
0.00277102
0.00274784
0.00272375
0.00269891
0.00267339
0.00264729
0.00262061
0.00259333
0.00256528
0.00253624
0.00250602
0.00247789
0.00245032
0.00242277
0.00239512
0.00236737
0.00233956
0.0023117
0.00228384
0.002256
0.00222822
0.0022005
0.00217288
0.00214536
0.00211797
0.00209072
0.00206362
0.00203669
0.00200994
0.00198338
0.00195702
0.00193089
0.00190498
0.00187932
0.0018539
0.00182875
0.00180385
0.00177926
0.00175494
0.00173094
0.00170726
0.00168391
0.00166091
0.00163829
0.00161607
0.00159438
0.00157347
0.00155404
0.00153776
0.00152673
0.00152052
0.0015184
0.00151965
0.00152389
0.00153047
0.00153916
0.00154951
0.0015613
0.00157419
0.00158795
0.00160255
0.00161759
0.00163301
0.00164849
0.00166403
0.00167934
0.00169394
0.0017076
0.00171961
0.00172917
0.00173475
0.00173408
0.00172581
0.00170906
0.00168336
0.00164884
0.00160634
0.00155742
0.00150421
0.00144925
0.00139497
0.00134324
0.00129545
0.00125221
0.0012136
0.00117937
0.00114882
0.0011214
0.00109616
0.00107243
0.00104932
0.00102797
0.00100458
9.33524e-06
0.000199952
0.000388492
0.000539532
0.000661006
0.000761638
0.00084781
0.000923919
0.000992919
0.00105669
0.00111633
0.00117289
0.00122677
0.00127825
0.00132759
0.00137499
0.00142066
0.00146478
0.00150754
0.00154914
0.00158972
0.00162945
0.00166846
0.00170688
0.00174477
0.00178224
0.0018193
0.00185601
0.00189231
0.00192835
0.00196409
0.00199945
0.0020344
0.00206888
0.00210284
0.00213621
0.00216894
0.00220097
0.00223224
0.00226271
0.00229235
0.00232112
0.00234901
0.00237602
0.00240217
0.00242747
0.00245197
0.0024757
0.00249874
0.00252113
0.00254295
0.0025643
0.00258524
0.00260588
0.0026263
0.00264658
0.0026668
0.00268702
0.00270727
0.00272754
0.00274784
0.00276813
0.00278834
0.00280839
0.00282818
0.0028476
0.00286654
0.00288487
0.0029025
0.00291931
0.00293517
0.00294914
0.00296296
0.00297495
0.00298503
0.00299298
0.00299856
0.0030015
0.00300162
0.00299879
0.00299298
0.00298424
0.00297273
0.00295863
0.0029422
0.00292368
0.00290335
0.00288144
0.00285817
0.00283374
0.00280831
0.00278205
0.00275506
0.0027274
0.00269905
0.00266987
0.00263958
0.00260785
0.00257816
0.00254904
0.00251992
0.0024907
0.00246138
0.00243199
0.00240255
0.00237311
0.0023437
0.00231434
0.00228506
0.00225588
0.00222682
0.0021979
0.00216913
0.00214054
0.00211213
0.00208392
0.00205593
0.00202817
0.00200065
0.00197339
0.0019464
0.00191967
0.00189325
0.00186711
0.0018413
0.0018158
0.00179065
0.00176585
0.00174141
0.00171735
0.0016937
0.0016705
0.00164789
0.00162621
0.00160635
0.00159046
0.00157964
0.00157319
0.00157049
0.00157089
0.00157407
0.00157941
0.00158675
0.00159568
0.001606
0.00161741
0.00162971
0.00164291
0.00165665
0.00167092
0.00168547
0.00170035
0.00171534
0.00173009
0.00174447
0.00175797
0.00177008
0.0017797
0.00178519
0.0017838
0.00177426
0.00175598
0.0017288
0.00169319
0.0016503
0.00160188
0.0015502
0.00149769
0.00144634
0.00139784
0.00135311
0.00131253
0.00127607
0.00124328
0.00121364
0.00118648
0.00116122
0.00113731
0.00111438
0.00109223
8.64936e-06
0.000191884
0.00037963
0.000536699
0.000667662
0.000779163
0.000876387
0.000963006
0.00104155
0.00111371
0.00118032
0.00124268
0.00130125
0.00135645
0.00140864
0.00145816
0.00150532
0.00155045
0.00159382
0.00163572
0.00167639
0.00171606
0.00175492
0.00179314
0.00183086
0.00186816
0.00190507
0.00194155
0.00197778
0.00201382
0.00204959
0.00208503
0.00212007
0.00215465
0.00218867
0.00222207
0.00225476
0.00228667
0.00231772
0.00234784
0.00237697
0.00240508
0.00243213
0.00245809
0.00248297
0.00250676
0.00252949
0.0025512
0.00257194
0.00259178
0.00261078
0.00262906
0.00264671
0.00266387
0.00268066
0.00269723
0.00271372