/*--------------------------------*- C++ -*----------------------------------*\
  =========                 |
  \\      /  F ield         | OpenFOAM: The Open Source CFD Toolbox
   \\    /   O peration     | Website:  https://openfoam.org
    \\  /    A nd           | Version:  7
     \\/     M anipulation  |
\*---------------------------------------------------------------------------*/
FoamFile
{
    version     2.0;
    format      ascii;
    class       volScalarField;
    location    "100";
    object      p;
}
// * * * * * * * * * * * * * * * * * * * * * * * * * * * * * * * * * * * * * //

dimensions      [0 2 -2 0 0 0 0];

internalField   nonuniform List<scalar> 
48900
(
1.59752
1.28662
0.273018
-0.32579
-0.579522
-0.717063
-0.824039
-0.924504
-1.02044
-1.10919
-1.19013
-1.26327
-1.32985
-1.39118
-1.44911
-1.50636
-1.56815
-1.64939
1.05985
0.6065
0.211728
-0.256269
-0.508047
-0.664913
-0.786457
-0.894664
-0.994299
-1.08498
-1.16718
-1.24142
-1.30883
-1.37093
-1.42942
-1.48668
-1.5466
-1.61375
1.01717
0.5985
0.129525
-0.259516
-0.50024
-0.659313
-0.783452
-0.892276
-0.991128
-1.08083
-1.16197
-1.23521
-1.30166
-1.3627
-1.41969
-1.47424
-1.52783
-1.57551
0.799858
0.496698
0.0924584
-0.256369
-0.49006
-0.651166
-0.777946
-0.887677
-0.986465
-1.07594
-1.15679
-1.22983
-1.29605
-1.35651
-1.41208
-1.46344
-1.50975
-1.54269
0.626795
0.414118
0.046319
-0.26396
-0.487138
-0.647735
-0.775602
-0.885641
-0.984097
-1.07295
-1.1532
-1.22573
-1.29136
-1.35083
-1.40464
-1.45263
-1.49252
-1.51625
0.470339
0.323109
0.00114783
-0.276018
-0.487804
-0.646491
-0.774624
-0.884774
-0.982849
-1.07115
-1.15088
-1.22291
-1.2879
-1.3464
-1.39852
-1.44353
-1.47874
-1.49796
0.329335
0.229412
-0.0460852
-0.292704
-0.491849
-0.647059
-0.774537
-0.884409
-0.982041
-1.06985
-1.14912
-1.22067
-1.2851
-1.34275
-1.39346
-1.43627
-1.46875
-1.48674
0.201844
0.135434
-0.0964641
-0.31452
-0.49975
-0.649865
-0.77558
-0.884636
-0.981642
-1.06891
-1.14772
-1.21887
-1.28285
-1.33985
-1.3896
-1.43116
-1.4627
-1.48171
0.0862585
0.0435187
-0.149663
-0.341344
-0.511878
-0.655457
-0.778286
-0.885886
-0.981954
-1.06856
-1.14689
-1.21769
-1.28134
-1.33797
-1.3873
-1.42859
-1.46063
-1.48219
-0.0187426
-0.0448093
-0.204842
-0.372477
-0.528152
-0.664132
-0.783093
-0.888598
-0.983374
-1.06916
-1.14695
-1.21742
-1.2809
-1.33748
-1.38695
-1.42884
-1.4625
-1.48756
-0.114229
-0.128634
-0.260977
-0.407014
-0.548182
-0.675901
-0.790233
-0.893084
-0.986235
-1.07102
-1.14823
-1.21844
-1.28192
-1.33876
-1.3889
-1.4321
-1.46819
-1.4973
-0.191143
-0.204225
-0.314733
-0.442451
-0.570398
-0.68993
-0.799336
-0.899228
-0.990561
-1.07426
-1.1509
-1.22092
-1.28458
-1.342
-1.39321
-1.43821
-1.47711
-1.51036
-0.265975
-0.269058
-0.363128
-0.476044
-0.592736
-0.70481
-0.809479
-0.906428
-0.995939
-1.07858
-1.15469
-1.22463
-1.28862
-1.3468
-1.3993
-1.44626
-1.488
-1.52507
-0.342736
-0.337783
-0.416668
-0.514942
-0.61997
-0.723807
-0.823022
-0.916454
-1.00378
-1.08516
-1.16072
-1.23068
-1.29524
-1.35454
-1.4088
-1.45829
-1.50341
-1.54478
-0.418776
-0.408351
-0.473848
-0.558455
-0.651943
-0.747198
-0.840453
-0.929939
-1.01478
-1.0948
-1.16984
-1.23999
-1.30542
-1.36627
-1.42278
-1.47531
-1.52431
-1.57034
-0.490294
-0.477728
-0.532123
-0.604769
-0.687608
-0.774582
-0.861793
-0.947255
-1.02951
-1.1082
-1.18289
-1.25348
-1.32015
-1.38299
-1.44221
-1.49822
-1.55141
-1.60228
-0.551601
-0.541349
-0.587338
-0.650482
-0.724508
-0.804336
-0.886184
-0.968064
-1.04808
-1.12572
-1.20047
-1.27188
-1.34017
-1.40546
-1.46777
-1.52748
-1.58501
-1.64065
-0.593593
-0.592185
-0.632876
-0.689863
-0.75799
-0.833001
-0.911226
-0.990772
-1.06963
-1.14698
-1.22243
-1.29533
-1.36568
-1.43374
-1.49944
-1.5629
-1.62457
-1.68469
-0.600212
-0.618628
-0.65797
-0.713438
-0.780256
-0.854338
-0.932255
-1.01195
-1.09162
-1.17028
-1.2475
-1.32274
-1.3958
-1.46692
-1.53606
-1.60322
-1.66868
-1.73266
-0.565658
-0.603248
-0.646853
-0.707559
-0.779747
-0.858822
-0.941184
-1.02482
-1.108
-1.18993
-1.27028
-1.34853
-1.42468
-1.49887
-1.57105
-1.64125
-1.70969
-1.77652
-0.506246
-0.559579
-0.611393
-0.681722
-0.763258
-0.850433
-0.939463
-1.02842
-1.11584
-1.20131
-1.28456
-1.36536
-1.44387
-1.52019
-1.59431
-1.66638
-1.73656
-1.80495
-0.425936
-0.494877
-0.5595
-0.644
-0.738505
-0.836267
-0.933469
-1.0285
-1.12046
-1.20943
-1.29537
-1.37841
-1.45885
-1.53681
-1.6124
-1.68581
-1.75718
-1.8266
-0.327904
-0.413793
-0.496873
-0.600122
-0.710734
-0.820709
-0.926683
-1.02775
-1.12396
-1.21597
-1.30413
-1.38897
-1.47088
-1.55005
-1.6267
-1.70106
-1.77324
-1.84335
-0.214212
-0.319685
-0.428391
-0.554761
-0.684042
-0.80695
-0.921447
-1.02788
-1.12759
-1.22188
-1.31169
-1.39781
-1.48072
-1.56071
-1.63809
-1.71307
-1.78577
-1.85632
-0.0866255
-0.21515
-0.358508
-0.511626
-0.661401
-0.796986
-0.919004
-1.02963
-1.13174
-1.22744
-1.31823
-1.40508
-1.48856
-1.56904
-1.64684
-1.72215
-1.79513
-1.86593
0.0519263
-0.1027
-0.291075
-0.473463
-0.64446
-0.79145
-0.919376
-1.03265
-1.13593
-1.23218
-1.3233
-1.41044
-1.49417
-1.57489
-1.65288
-1.72832
-1.80141
-1.87233
0.197014
0.0143604
-0.227495
-0.44145
-0.632793
-0.789434
-0.921482
-1.03596
-1.13937
-1.23555
-1.32664
-1.41383
-1.49768
-1.57854
-1.65665
-1.73217
-1.80527
-1.87623
0.354467
0.119227
-0.166699
-0.41375
-0.624613
-0.789872
-0.92488
-1.03969
-1.14276
-1.23853
-1.32947
-1.41673
-1.50069
-1.58166
-1.65989
-1.73551
-1.8086
-1.87951
-0.0529931
0.327296
-0.0887558
-0.395883
-0.626465
-0.799431
-0.935397
-1.04853
-1.14981
-1.24408
-1.33396
-1.42078
-1.50456
-1.58539
-1.66357
-1.73917
-1.81215
-1.88269
6.62733
-0.478639
-0.263334
-0.469761
-0.663449
-0.820197
-0.945722
-1.05191
-1.14987
-1.24322
-1.33333
-1.4212
-1.50621
-1.58817
-1.66731
-1.74373
-1.81723
-1.88765
-2.12391
-2.1229
-2.13195
-2.14515
-2.15882
-2.17349
-2.19078
-2.21282
-2.2415
-2.27856
-2.32546
-2.38341
-2.45333
-2.5359
-2.63158
-2.74053
-2.86262
-2.99749
-3.14457
-3.30339
-3.47309
-3.65305
-3.84248
-4.04062
-4.24667
-4.46027
-4.6806
-4.90705
-5.13897
-5.37569
-5.61646
-5.86047
-6.10676
-6.35453
-6.60292
-6.85054
-7.09771
-7.34309
-7.58604
-7.8257
-8.06152
-8.29402
-8.5246
-8.75241
-8.96656
-9.10832
-9.19172
-9.26535
-9.31646
-9.35603
-9.37108
-9.36149
-9.31641
-9.23762
-9.12442
-8.96947
-8.77194
-8.53936
-8.25154
-7.91113
-7.54024
-7.1195
-6.6588
-6.15953
-5.62945
-5.06183
-4.45966
-3.82348
-3.18451
-2.50732
-1.81586
-1.12296
-0.402446
0.316667
1.03243
1.73425
2.42269
3.12169
3.76909
4.41858
5.07622
5.7144
6.30591
6.87688
7.45412
8.00674
8.52356
9.01585
9.49802
9.98291
10.4384
10.8695
11.2756
11.6653
12.0312
12.3849
12.7379
13.0861
13.4114
13.7162
14.0013
14.2681
14.5227
14.7756
15.0214
15.254
15.4742
15.6829
15.8811
16.0693
16.2482
16.4183
16.5798
16.7328
16.8776
17.0145
17.1437
17.2654
17.3799
17.4874
17.5882
17.6825
17.7705
17.8523
17.9282
17.9985
18.0633
18.1227
18.1772
18.2266
18.2715
18.3116
18.3475
18.3793
18.4072
18.4319
18.4535
18.4727
18.4896
18.5047
18.5182
18.5303
18.5412
18.5512
18.5602
18.5683
18.5759
18.5828
18.5889
18.5945
18.5993
18.6032
18.6061
18.6081
18.6087
18.608
18.6059
18.6024
18.5975
18.5913
18.5835
18.5745
18.5643
18.5532
18.541
18.5276
18.5141
18.5008
18.488
18.4763
18.4654
18.4552
18.4485
18.4476
18.4529
18.4664
18.4942
18.5456
18.6365
18.8118
-2.08897
-2.1203
-2.12945
-2.13612
-2.14039
-2.14597
-2.1562
-2.17308
-2.19783
-2.23158
-2.27553
-2.33083
-2.39853
-2.4793
-2.57353
-2.68123
-2.80211
-2.93577
-3.08162
-3.239
-3.40714
-3.58535
-3.77294
-3.96924
-4.17364
-4.38549
-4.60421
-4.82917
-5.05978
-5.2954
-5.53536
-5.7789
-6.02522
-6.27344
-6.52244
-6.77158
-7.01949
-7.26468
-7.50625
-7.74248
-7.97164
-8.1914
-8.39887
-8.59132
-8.76713
-8.93477
-9.08541
-9.19884
-9.28835
-9.34926
-9.38213
-9.38314
-9.35094
-9.28306
-9.17535
-9.02668
-8.83656
-8.59941
-8.3198
-8.00229
-7.63757
-7.22991
-6.77948
-6.28839
-5.75736
-5.19169
-4.59719
-3.97989
-3.3318
-2.6669
-1.98584
-1.28827
-0.589569
0.110948
0.811071
1.50954
2.20528
2.88977
3.57348
4.23353
4.87157
5.49967
6.12474
6.72433
7.29279
7.84268
8.37669
8.8874
9.36851
9.83285
10.2962
10.7437
11.1608
11.5489
11.918
12.2697
12.6184
12.9669
13.302
13.6091
13.8959
14.1675
14.4254
14.6794
14.9269
15.1609
15.3829
15.594
15.7947
15.9855
16.1669
16.3394
16.5031
16.6584
16.8054
16.9445
17.0758
17.1996
17.3161
17.4256
17.5283
17.6244
17.7142
17.7977
17.8754
17.9472
18.0136
18.0746
18.1305
18.1814
18.2276
18.2692
18.3065
18.3397
18.3691
18.3952
18.4183
18.4389
18.4571
18.4735
18.4881
18.5012
18.5131
18.5239
18.5337
18.5426
18.551
18.5586
18.5658
18.5723
18.5783
18.5835
18.5879
18.5913
18.5936
18.5946
18.5941
18.5922
18.5886
18.5836
18.5769
18.5686
18.5592
18.5483
18.5364
18.5239
18.511
18.4977
18.4849
18.4726
18.4614
18.4523
18.4462
18.4447
18.4495
18.4636
18.4914
18.5407
18.6241
18.7636
-2.00557
-2.07499
-2.09577
-2.10748
-2.11559
-2.12463
-2.13838
-2.15927
-2.18887
-2.22833
-2.2786
-2.34045
-2.41445
-2.50083
-2.59962
-2.71069
-2.83374
-2.96835
-3.11406
-3.27035
-3.43671
-3.61259
-3.79749
-3.99093
-4.19239
-4.40145
-4.61755
-4.8402
-5.06886
-5.30292
-5.54177
-5.78469
-6.03089
-6.2794
-6.52925
-6.7795
-7.02878
-7.27555
-7.51842
-7.75561
-7.98525
-8.20513
-8.41305
-8.60696
-8.78608
-8.9509
-9.09879
-9.22517
-9.32632
-9.39971
-9.44323
-9.45478
-9.43209
-9.37304
-9.27543
-9.13745
-8.95773
-8.73469
-8.4671
-8.15501
-7.79859
-7.39858
-6.95601
-6.47283
-5.95078
-5.39219
-4.80061
-4.18024
-3.53435
-2.86739
-2.18368
-1.48693
-0.78294
-0.0760731
0.630466
1.33343
2.03188
2.72313
3.40281
4.06813
4.71887
5.3559
5.97716
6.57733
7.15417
7.70893
8.24167
8.75219
9.24207
9.7193
10.1836
10.626
11.0412
11.4348
11.8102
12.1735
12.5297
12.8765
13.2052
13.5127
13.8044
14.0815
14.3479
14.6073
14.8535
15.0869
15.3097
15.5221
15.7246
15.9173
16.1008
16.2752
16.4409
16.5981
16.747
16.8879
17.021
17.1466
17.2649
17.3761
17.4804
17.5781
17.6694
17.7545
17.8336
17.9069
17.9746
18.037
18.0941
18.1462
18.1934
18.236
18.2742
18.3083
18.3385
18.3654
18.3893
18.4106
18.4296
18.4466
18.462
18.4758
18.4883
18.4996
18.51
18.5194
18.5281
18.5361
18.5436
18.5505
18.5569
18.5627
18.5678
18.5722
18.5756
18.578
18.579
18.5787
18.5767
18.5731
18.5678
18.5607
18.5521
18.5421
18.531
18.519
18.5063
18.4934
18.4807
18.4683
18.4571
18.4479
18.4417
18.4393
18.4428
18.4554
18.4802
18.5227
18.5898
18.6817
-1.92472
-2.00837
-2.04937
-2.07396
-2.09315
-2.11295
-2.13768
-2.16989
-2.21101
-2.26185
-2.323
-2.39481
-2.47746
-2.57096
-2.67526
-2.79022
-2.91564
-3.05119
-3.19665
-3.35172
-3.51612
-3.6895
-3.87155
-4.06198
-4.26039
-4.46654
-4.67997
-4.90025
-5.12683
-5.35925
-5.59685
-5.83886
-6.08453
-6.33299
-6.58332
-6.83426
-7.08465
-7.333
-7.57789
-7.81761
-8.05036
-8.27441
-8.48785
-8.68897
-8.87631
-9.04813
-9.20209
-9.33492
-9.44369
-9.52567
-9.57844
-9.59936
-9.58605
-9.53612
-9.4474
-9.31772
-9.14538
-8.92875
-8.66713
-8.35987
-8.00686
-7.6088
-7.1669
-6.68274
-6.15862
-5.5974
-5.00208
-4.37638
-3.72432
-3.05035
-2.35918
-1.65503
-0.942863
-0.227134
0.488281
1.2
1.90534
2.60178
3.28671
3.958
4.61431
5.25455
5.87607
6.47687
7.05571
7.61238
8.14707
8.6609
9.15572
9.63509
10.0971
10.5367
10.9534
11.3509
11.732
12.1002
12.4575
12.8018
13.1298
13.438
13.7319
14.0129
14.2835
14.5444
14.7922
15.0271
15.251
15.4648
15.6687
15.863
16.0478
16.2237
16.3907
16.5493
16.6996
16.8418
16.9762
17.1031
17.2227
17.3351
17.4407
17.5396
17.6321
17.7184
17.7987
17.8731
17.942
18.0055
18.0637
18.1169
18.1653
18.2089
18.2481
18.283
18.314
18.3415
18.3658
18.3875
18.407
18.4245
18.4402
18.4544
18.4672
18.4788
18.4893
18.4988
18.5076
18.5155
18.5229
18.5296
18.5358
18.5415
18.5466
18.5512
18.5551
18.5581
18.5602
18.5611
18.5606
18.5585
18.5548
18.5493
18.542
18.5332
18.5231
18.5118
18.4997
18.4872
18.4747
18.4624
18.4511
18.4415
18.4346
18.4311
18.4328
18.4423
18.462
18.495
18.5426
18.594
-1.88888
-1.96329
-2.02217
-2.06098
-2.09337
-2.126
-2.16347
-2.20832
-2.26176
-2.32432
-2.39618
-2.47737
-2.56787
-2.66765
-2.77664
-2.89479
-3.02204
-3.15825
-3.30336
-3.45728
-3.61994
-3.79112
-3.9707
-4.15857
-4.35447
-4.55821
-4.76942
-4.98772
-5.21275
-5.44391
-5.68064
-5.92234
-6.1681
-6.41729
-6.66874
-6.92132
-7.17408
-7.42541
-7.67405
-7.91842
-8.15679
-8.38747
-8.6085
-8.81815
-9.01439
-9.19507
-9.35778
-9.49967
-9.61793
-9.70994
-9.77269
-9.80362
-9.8
-9.75935
-9.67925
-9.55733
-9.39141
-9.18024
-8.92231
-8.61716
-8.26469
-7.86519
-7.41997
-6.93075
-6.39984
-5.83017
-5.2252
-4.58881
-3.92537
-3.23948
-2.53592
-1.81948
-1.09522
-0.367531
0.359369
1.082
1.79707
2.50185
3.194
3.87144
4.53235
5.17518
5.79831
6.40047
6.98085
7.53938
8.07642
8.59266
9.08927
9.56829
10.0283
10.4673
10.8859
11.2862
11.6701
12.0397
12.3957
12.7383
13.0671
13.377
13.6728
13.956
14.228
14.489
14.7378
14.9743
15.1997
15.4147
15.6198
15.8153
16.0014
16.1785
16.3467
16.5064
16.6578
16.8012
16.9368
17.0648
17.1854
17.2989
17.4056
17.5056
17.5991
17.6863
17.7676
17.843
17.9128
17.9773
18.0364
18.0906
18.14
18.1847
18.2249
18.2608
18.2928
18.321
18.3461
18.3684
18.3884
18.4063
18.4223
18.4368
18.4498
18.4616
18.4722
18.4817
18.4904
18.4982
18.5053
18.5116
18.5175
18.5227
18.5274
18.5316
18.5353
18.5384
18.5407
18.5421
18.5425
18.5415
18.5391
18.535
18.5291
18.5216
18.5126
18.5023
18.491
18.479
18.4668
18.4548
18.4434
18.4334
18.4254
18.4204
18.4197
18.4252
18.4383
18.4602
18.4882
18.5071
-1.91274
-1.96452
-2.03398
-2.08372
-2.12721
-2.17088
-2.21905
-2.27414
-2.33723
-2.40865
-2.48838
-2.57629
-2.67232
-2.7764
-2.88849
-3.00863
-3.1369
-3.27325
-3.41783
-3.5707
-3.73186
-3.90135
-4.0791
-4.26505
-4.45913
-4.66122
-4.87108
-5.08836
-5.31271
-5.54369
-5.78082
-6.02329
-6.27059
-6.52176
-6.77591
-7.03201
-7.28884
-7.54528
-7.7998
-8.05088
-8.2969
-8.53612
-8.76654
-8.98627
-9.19297
-9.38433
-9.55794
-9.71101
-9.84065
-9.94407
-10.0183
-10.0603
-10.0674
-10.0368
-9.96559
-9.85136
-9.6918
-9.48519
-9.23002
-8.92545
-8.57138
-8.16805
-7.71679
-7.21911
-6.67764
-6.09557
-5.47654
-4.82491
-4.14548
-3.4431
-2.72305
-1.99027
-1.25007
-0.507188
0.233981
0.969535
1.69614
2.41091
3.11127
3.79528
4.46115
5.10735
5.73277
6.33665
6.91851
7.47844
8.0169
8.53414
9.03097
9.50937
9.96837
10.407
10.8264
11.228
11.613
11.9828
12.338
12.6799
13.0097
13.321
13.6185
13.9031
14.1759
14.4372
14.6866
14.9243
15.151
15.3672
15.5735
15.7701
15.9574
16.1355
16.3049
16.4657
16.6182
16.7626
16.8993
17.0283
17.15
17.2646
17.3723
17.4733
17.5678
17.656
17.7382
17.8146
17.8853
17.9506
18.0107
18.0658
18.116
18.1616
18.2028
18.2397
18.2726
18.3018
18.3278
18.3509
18.3717
18.3902
18.4069
18.4218
18.4351
18.4471
18.4578
18.4675
18.4761
18.4838
18.4906
18.4967
18.5021
18.5069
18.5111
18.5148
18.518
18.5207
18.5228
18.5242
18.5247
18.5243
18.5225
18.5194
18.5147
18.5083
18.5003
18.491
18.4804
18.4691
18.4572
18.4453
18.4338
18.4232
18.4142
18.4076
18.4041
18.405
18.4107
18.421
18.4306
18.4243
-1.9881
-2.01447
-2.08645
-2.14206
-2.19254
-2.24358
-2.29884
-2.36041
-2.4293
-2.5058
-2.58987
-2.6814
-2.78024
-2.88636
-2.99982
-3.12067
-3.24901
-3.38503
-3.5289
-3.68077
-3.84078
-4.00903
-4.18561
-4.37051
-4.56372
-4.76512
-4.97464
-5.19201
-5.41699
-5.64906
-5.88778
-6.1326
-6.38275
-6.63756
-6.89604
-7.15738
-7.42017
-7.6834
-7.94565
-8.20528
-8.46073
-8.71006
-8.95148
-9.1828
-9.40161
-9.60557
-9.79207
-9.95832
-10.1014
-10.2182
-10.3056
-10.3605
-10.3798
-10.3604
-10.2994
-10.1938
-10.041
-9.83915
-9.58635
-9.28173
-8.92479
-8.51592
-8.05622
-7.54746
-6.99243
-6.39447
-5.75766
-5.08688
-4.38728
-3.66429
-2.92373
-2.17087
-1.41152
-0.650658
0.107099
0.857585
1.59721
2.32293
3.03234
3.72349
4.39469
5.04476
5.67298
6.27862
6.86179
7.42261
7.9615
8.47901
8.97557
9.4529
9.91074
10.3489
10.7685
11.1706
11.5561
11.9261
12.2811
12.623
12.9533
13.2657
13.5643
13.8499
14.1234
14.3851
14.6352
14.8739
15.1018
15.3193
15.5267
15.7244
15.9128
16.0921
16.2626
16.4245
16.5781
16.7237
16.8614
16.9916
17.1144
17.23
17.3388
17.4408
17.5363
17.6256
17.7088
17.7861
17.8578
17.924
17.985
18.041
18.0921
18.1387
18.1807
18.2185
18.2523
18.2826
18.3096
18.3338
18.3554
18.3748
18.3922
18.4077
18.4216
18.434
18.4451
18.4549
18.4637
18.4714
18.4782
18.4841
18.4893
18.4936
18.4974
18.5007
18.5034
18.5056
18.5072
18.5083
18.5087
18.5083
18.5068
18.5041
18.5
18.4944
18.4873
18.4787
18.4688
18.4579
18.4463
18.4343
18.4225
18.4112
18.4011
18.3925
18.3862
18.3824
18.3808
18.3798
18.3732
18.347
-2.09612
-2.10102
-2.16897
-2.22543
-2.27857
-2.3329
-2.3914
-2.45581
-2.52699
-2.6053
-2.69067
-2.78308
-2.88242
-2.98874
-3.10207
-3.22249
-3.35028
-3.48556
-3.62859
-3.77959
-3.93875
-4.10631
-4.28236
-4.46697
-4.6602
-4.86197
-5.07223
-5.2908
-5.51744
-5.75179
-5.99349
-6.24182
-6.49625
-6.75611
-7.02042
-7.28834
-7.55864
-7.83012
-8.10154
-8.37119
-8.63752
-8.89861
-9.15244
-9.39688
-9.62961
-9.84804
-10.0493
-10.2307
-10.3892
-10.5213
-10.6239
-10.6937
-10.7272
-10.7208
-10.6716
-10.576
-10.4314
-10.235
-9.98519
-9.68041
-9.32028
-8.90481
-8.43514
-7.9133
-7.34197
-6.72506
-6.06717
-5.37343
-4.64985
-3.9026
-3.13774
-2.36144
-1.57989
-0.798523
-0.0222257
0.74463
1.49827
2.23583
2.95483
3.65344
4.33012
4.98427
5.61496
6.2224
6.80635
7.36733
7.90604
8.42295
8.91877
9.3954
9.85266
10.2903
10.7099
11.1121
11.4979
11.8679
12.2228
12.5648
12.8954
13.2084
13.5077
13.7941
14.0683
14.3307
14.5816
14.8213
15.0503
15.2689
15.4775
15.6764
15.866
16.0464
16.2181
16.3812
16.5361
16.6828
16.8218
16.9531
17.0771
17.1939
17.3038
17.407
17.5036
17.5939
17.6782
17.7566
17.8293
17.8965
17.9585
18.0155
18.0676
18.115
18.158
18.1967
18.2316
18.2628
18.291
18.3162
18.3389
18.3591
18.3773
18.3936
18.4081
18.4211
18.4327
18.4429
18.452
18.4599
18.4668
18.4728
18.4779
18.4821
18.4857
18.4886
18.4909
18.4926
18.4938
18.4946
18.4947
18.494
18.4925
18.4899
18.4861
18.4809
18.4743
18.4662
18.4568
18.4462
18.4347
18.4226
18.4103
18.3981
18.3864
18.3757
18.3661
18.3575
18.3491
18.338
18.3177
18.276
-2.21496
-2.20574
-2.26522
-2.31841
-2.3705
-2.42479
-2.48352
-2.54798
-2.6189
-2.6966
-2.78115
-2.87257
-2.97087
-3.07606
-3.18824
-3.30759
-3.43434
-3.56864
-3.71084
-3.86119
-4.01989
-4.1872
-4.36327
-4.5483
-4.74226
-4.94521
-5.15718
-5.37796
-5.6074
-5.84514
-6.09076
-6.34388
-6.60381
-6.86982
-7.14125
-7.41702
-7.69606
-7.97726
-8.25917
-8.54032
-8.81896
-9.09322
-9.3612
-9.6206
-9.86888
-10.1036
-10.3218
-10.5205
-10.6964
-10.8463
-10.9665
-11.0534
-11.1033
-11.1124
-11.077
-10.9936
-10.8586
-10.6693
-10.4232
-10.1189
-9.75541
-9.3326
-8.85171
-8.31447
-7.72432
-7.08542
-6.4027
-5.68235
-4.93079
-4.15504
-3.36225
-2.55908
-1.75234
-0.947963
-0.151269
0.633336
1.40187
2.15161
2.88011
3.58597
4.26798
4.9255
5.55834
6.16676
6.75103
7.31178
7.85003
8.36614
8.86119
9.33717
9.7937
10.2307
10.6497
11.0516
11.4371
11.8069
12.1617
12.5036
12.8343
13.1478
13.4476
13.7347
14.0096
14.2728
14.5246
14.7653
14.9954
15.2152
15.425
15.6251
15.816
15.9977
16.1707
16.3351
16.4913
16.6393
16.7796
16.9122
17.0375
17.1555
17.2667
17.3711
17.4689
17.5605
17.6459
17.7254
17.7993
17.8676
17.9306
17.9886
18.0418
18.0902
18.1342
18.174
18.2098
18.2422
18.2715
18.2979
18.3216
18.3429
18.362
18.379
18.3943
18.4079
18.42
18.4308
18.4403
18.4485
18.4558
18.4619
18.4672
18.4715
18.475
18.4777
18.4798
18.4812
18.4821
18.4825
18.4822
18.4814
18.4796
18.4769
18.4732
18.4681
18.4617
18.4539
18.4448
18.4344
18.4229
18.4106
18.3976
18.3844
18.3711
18.3579
18.3447
18.3311
18.3159
18.2959
18.2645
18.211
-2.32662
-2.31053
-2.35921
-2.40647
-2.45494
-2.50676
-2.56344
-2.62596
-2.69491
-2.77057
-2.85305
-2.94245
-3.03881
-3.14222
-3.25277
-3.37073
-3.49624
-3.6296
-3.77105
-3.92095
-4.0795
-4.24695
-4.42357
-4.60956
-4.80491
-5.00977
-5.22408
-5.44775
-5.68067
-5.9226
-6.17315
-6.43185
-6.69812
-6.97135
-7.25083
-7.53555
-7.82444
-8.11638
-8.40999
-8.70374
-8.99599
-9.28499
-9.56845
-9.84422
-10.1099
-10.3627
-10.5996
-10.8176
-11.0135
-11.1833
-11.3235
-11.43
-11.4989
-11.526
-11.507
-11.4378
-11.3149
-11.1345
-10.8939
-10.591
-10.2246
-9.79428
-9.30129
-8.74745
-8.13613
-7.4721
-6.76114
-6.01009
-5.22651
-4.41828
-3.59366
-2.76013
-1.92528
-1.09568
-0.277023
0.526051
1.30992
2.07165
2.80934
3.52185
4.20857
4.86911
5.50378
6.11299
6.6974
7.25772
7.79504
8.30997
8.80367
9.27844
9.73367
10.1694
10.5874
10.9885
11.3734
11.7427
12.0972
12.4389
12.7695
13.0833
13.3837
13.6713
13.9469
14.211
14.4637
14.7055
14.9367
15.1577
15.3688
15.5703
15.7625
15.9456
16.12
16.2858
16.4434
16.5929
16.7345
16.8686
16.9952
17.1147
17.2272
17.3329
17.4321
17.5249
17.6117
17.6924
17.7675
17.837
17.9012
17.9603
18.0146
18.0641
18.1092
18.15
18.1871
18.2207
18.2512
18.2787
18.3035
18.3258
18.3459
18.3638
18.3798
18.3941
18.4069
18.4182
18.4281
18.4368
18.4444
18.4509
18.4564
18.4609
18.4646
18.4673
18.4694
18.4707
18.4714
18.4715
18.4709
18.4698
18.4679
18.465
18.4611
18.4561
18.4497
18.442
18.433
18.4226
18.411
18.3983
18.3846
18.3703
18.3553
18.3396
18.3229
18.3045
18.2827
18.2543
18.2134
18.1511
-2.41742
-2.40087
-2.43794
-2.47768
-2.52084
-2.56859
-2.62187
-2.6813
-2.74733
-2.8202
-2.90007
-2.98701
-3.08113
-3.18254
-3.2914
-3.40789
-3.53226
-3.66475
-3.80568
-3.95536
-4.11402
-4.28205
-4.45955
-4.64681
-4.84392
-5.05102
-5.26814
-5.4953
-5.73227
-5.9789
-6.23487
-6.4998
-6.77307
-7.05421
-7.34245
-7.63679
-7.93643
-8.23996
-8.54627
-8.85374
-9.16078
-9.46539
-9.76581
-10.0595
-10.344
-10.6165
-10.874
-11.1134
-11.331
-11.523
-11.6855
-11.8142
-11.9047
-11.9524
-11.9525
-11.9003
-11.7919
-11.6226
-11.3895
-11.0896
-10.7213
-10.284
-9.77846
-9.20654
-8.57208
-7.88029
-7.13757
-6.35197
-5.53216
-4.68726
-3.82691
-2.95966
-2.09408
-1.23744
-0.395657
0.426711
1.22596
1.99975
2.74651
3.46555
4.15648
4.81952
5.45527
6.06431
6.64786
7.20661
7.74211
8.25493
8.74655
9.21933
9.6725
10.1065
10.5229
10.9227
11.3066
11.6753
12.0292
12.3705
12.7008
13.0149
13.3156
13.6039
13.8802
14.1452
14.3988
14.6418
14.8742
15.0965
15.3089
15.5118
15.7054
15.8901
16.066
16.2333
16.3924
16.5434
16.6866
16.8221
16.9503
17.0713
17.1852
17.2925
17.3931
17.4873
17.5754
17.6575
17.7339
17.8047
17.8702
17.9306
17.986
18.0367
18.083
18.1251
18.1634
18.1983
18.23
18.2587
18.2846
18.308
18.329
18.3478
18.3646
18.3797
18.3931
18.4049
18.4154
18.4246
18.4326
18.4395
18.4453
18.4501
18.454
18.457
18.4591
18.4605
18.4611
18.461
18.4603
18.4589
18.4568
18.4537
18.4497
18.4446
18.4382
18.4304
18.4213
18.4108
18.3989
18.3857
18.3714
18.3558
18.3391
18.3209
18.3008
18.2779
18.2502
18.2144
18.1653
18.0955
-2.47896
-2.46683
-2.49245
-2.52391
-2.56077
-2.60348
-2.65253
-2.70827
-2.77097
-2.84083
-2.91795
-3.00246
-3.09442
-3.19401
-3.30131
-3.41655
-3.53998
-3.67184
-3.8124
-3.96211
-4.12112
-4.28979
-4.46835
-4.65711
-4.85624
-5.06583
-5.28609
-5.51683
-5.75813
-6.00972
-6.27146
-6.54287
-6.82359
-7.11299
-7.41041
-7.715
-8.02573
-8.34148
-8.6611
-8.98298
-9.30561
-9.62707
-9.94523
-10.2579
-10.5624
-10.8561
-11.1357
-11.398
-11.6392
-11.8554
-12.0423
-12.1954
-12.3098
-12.3805
-12.4024
-12.37
-12.2784
-12.1232
-11.8998
-11.605
-11.2364
-10.7931
-10.275
-9.6845
-9.02515
-8.30317
-7.52562
-6.70187
-5.84186
-4.95663
-4.05682
-3.15269
-2.25368
-1.3676
-0.500813
0.342185
1.15754
1.94335
2.69854
3.42264
4.11625
4.78007
5.41501
6.02247
6.60345
7.15931
7.69174
8.20144
8.69002
9.15992
9.61047
10.0421
10.4564
10.8545
11.2371
11.6046
11.958
12.2988
12.6286
12.9427
13.2438
13.5326
13.8098
14.0756
14.3303
14.5743
14.8081
15.0317
15.2456
15.45
15.6451
15.8313
16.0088
16.1777
16.3384
16.4911
16.636
16.7732
16.9029
17.0255
17.1411
17.2499
17.3521
17.4478
17.5374
17.621
17.6988
17.771
17.8378
17.8995
17.9562
18.0082
18.0558
18.0992
18.1388
18.175
18.208
18.2379
18.265
18.2894
18.3113
18.3311
18.3487
18.3645
18.3786
18.3911
18.4021
18.4118
18.4203
18.4275
18.4338
18.4389
18.4431
18.4463
18.4487
18.4502
18.4508
18.4508
18.4499
18.4484
18.4461
18.4429
18.4387
18.4334
18.4269
18.419
18.4097
18.399
18.3868
18.373
18.3578
18.341
18.3226
18.302
18.2787
18.2515
18.2184
18.1763
18.1203
18.0444
-2.50947
-2.50301
-2.51784
-2.54075
-2.57073
-2.60787
-2.65222
-2.70398
-2.76325
-2.83011
-2.90463
-2.98689
-3.07698
-3.17496
-3.28103
-3.39528
-3.51806
-3.6495
-3.79
-3.93989
-4.09938
-4.26888
-4.44863
-4.63896
-4.84014
-5.05231
-5.27558
-5.51004
-5.75557
-6.01221
-6.27964
-6.55768
-6.84583
-7.14363
-7.4503
-7.76517
-8.08744
-8.41571
-8.74893
-9.08566
-9.4244
-9.76292
-10.0995
-10.4318
-10.7573
-11.0729
-11.3756
-11.6619
-11.9279
-12.1696
-12.3824
-12.5615
-12.7017
-12.7976
-12.8435
-12.8333
-12.7612
-12.6223
-12.411
-12.1237
-11.7566
-11.3084
-10.7785
-10.1691
-9.48415
-8.73018
-7.91547
-7.05066
-6.1475
-5.21824
-4.27564
-3.33115
-2.39536
-1.47739
-0.583754
0.280022
1.11087
1.9074
2.66908
3.39631
4.0904
4.75272
5.38484
5.98859
6.56529
7.11672
7.64468
8.14999
8.63465
9.10066
9.54768
9.97627
10.3881
10.7842
11.165
11.5313
11.8838
12.2239
12.553
12.8671
13.1686
13.4579
13.7358
14.0025
14.2583
14.5035
14.7385
14.9636
15.179
15.385
15.5817
15.7696
15.9488
16.1195
16.2819
16.4363
16.5829
16.7219
16.8534
16.9777
17.0949
17.2054
17.3093
17.4067
17.4978
17.583
17.6623
17.736
17.8043
17.8673
17.9254
17.9788
18.0277
18.0725
18.1136
18.1512
18.1854
18.2166
18.2448
18.2702
18.2931
18.3137
18.3322
18.3487
18.3635
18.3766
18.3882
18.3984
18.4073
18.4151
18.4217
18.4272
18.4317
18.4353
18.4379
18.4396
18.4404
18.4404
18.4396
18.438
18.4356
18.4323
18.428
18.4225
18.4158
18.4077
18.3982
18.3872
18.3745
18.3602
18.3441
18.3261
18.3059
18.283
18.2566
18.2255
18.1876
18.1399
18.0782
17.9971
-2.50857
-2.50817
-2.51251
-2.52669
-2.54947
-2.58066
-2.62012
-2.66777
-2.72358
-2.78753
-2.8596
-2.93982
-3.02822
-3.12484
-3.22982
-3.34338
-3.46557
-3.5968
-3.73731
-3.88746
-4.04754
-4.2179
-4.39894
-4.59089
-4.79411
-5.0088
-5.23509
-5.47306
-5.72281
-5.98439
-6.25748
-6.54191
-6.83732
-7.14345
-7.45944
-7.78458
-8.11813
-8.45889
-8.8058
-9.15732
-9.51192
-9.86797
-10.2232
-10.5753
-10.9216
-11.2593
-11.5853
-11.8958
-12.187
-12.4546
-12.6941
-12.8999
-13.067
-13.1892
-13.2603
-13.2735
-13.2227
-13.1016
-12.9043
-12.6258
-12.2618
-11.8102
-11.2699
-10.6428
-9.93301
-9.14744
-8.29521
-7.38789
-6.43911
-5.46279
-4.47378
-3.48564
-2.5108
-1.55948
-0.639031
0.245294
1.09044
1.89556
2.66142
3.38905
4.08087
4.73911
5.36584
5.96359
6.53412
7.07936
7.60137
8.10106
8.58044
9.04186
9.48469
9.9096
10.3184
10.7119
11.0908
11.4556
11.8069
12.1461
12.4744
12.7885
13.0902
13.3801
13.6586
13.9263
14.1832
14.4296
14.666
14.8926
15.1096
15.3171
15.5157
15.7053
15.8862
16.0588
16.2231
16.3793
16.5277
16.6686
16.8019
16.928
17.0471
17.1594
17.265
17.364
17.457
17.5437
17.6247
17.7
17.7697
17.8343
17.8938
17.9487
17.999
18.0453
18.0878
18.1268
18.1624
18.1947
18.224
18.2505
18.2744
18.2959
18.3152
18.3325
18.3479
18.3616
18.3738
18.3845
18.3939
18.4021
18.4091
18.415
18.4199
18.4238
18.4267
18.4287
18.4298
18.4299
18.4292
18.4276
18.4252
18.4217
18.4173
18.4117
18.4048
18.3965
18.3868
18.3754
18.3623
18.3474
18.3304
18.3111
18.2892
18.2641
18.2348
18.2001
18.1579
18.1053
18.0386
17.9533
-2.47923
-2.484
-2.478
-2.48323
-2.49851
-2.52349
-2.5578
-2.60121
-2.6535
-2.71455
-2.78422
-2.86246
-2.94923
-3.04459
-3.14859
-3.26139
-3.3832
-3.51425
-3.65483
-3.80529
-3.96597
-4.13722
-4.31941
-4.51289
-4.71794
-4.93488
-5.16393
-5.40523
-5.65892
-5.92503
-6.20347
-6.49409
-6.79658
-7.11058
-7.43554
-7.77077
-8.11545
-8.46857
-8.829
-9.19531
-9.56596
-9.93911
-10.3127
-10.6844
-11.0515
-11.4112
-11.7601
-12.0946
-12.4106
-12.7038
-12.9692
-13.2015
-13.3949
-13.5433
-13.6396
-13.6768
-13.6479
-13.5461
-13.3642
-13.0963
-12.7378
-12.2851
-11.7366
-11.0938
-10.3602
-9.54293
-8.65187
-7.70017
-6.70306
-5.67732
-4.63984
-3.60667
-2.59207
-1.60726
-0.660825
0.242179
1.09927
1.91049
2.67718
3.40217
4.08869
4.73976
5.35859
5.94788
6.51016
7.04748
7.56198
8.05481
8.52793
8.98357
9.42138
9.84217
10.2474
10.6378
11.0145
11.3776
11.7276
12.0658
12.3931
12.7071
13.009
13.2993
13.5786
13.8473
14.1053
14.353
14.5908
14.8189
15.0376
15.2468
15.4472
15.6387
15.8214
15.9959
16.1622
16.3204
16.4707
16.6135
16.7487
16.8768
16.9978
17.112
17.2194
17.3204
17.415
17.5036
17.5862
17.6631
17.7345
17.8006
17.8617
17.918
17.9699
18.0178
18.0618
18.1021
18.139
18.1725
18.203
18.2305
18.2553
18.2777
18.2978
18.3157
18.3318
18.3461
18.3589
18.3701
18.38
18.3887
18.3961
18.4024
18.4077
18.412
18.4152
18.4175
18.4188
18.4192
18.4186
18.4171
18.4146
18.4112
18.4066
18.4009
18.3939
18.3854
18.3754
18.3637
18.3502
18.3346
18.3167
18.2962
18.2727
18.2455
18.2135
18.1755
18.1294
18.0726
18.0017
17.9127
-2.42428
-2.43392
-2.41739
-2.41322
-2.42051
-2.43883
-2.46769
-2.50662
-2.5552
-2.61315
-2.68022
-2.75628
-2.84124
-2.93512
-3.03796
-3.1499
-3.27113
-3.40191
-3.5425
-3.69324
-3.85448
-4.02659
-4.20994
-4.4049
-4.61178
-4.83095
-5.06267
-5.30715
-5.56457
-5.83503
-6.11854
-6.41499
-6.72412
-7.04574
-7.37929
-7.72417
-8.07964
-8.44471
-8.81833
-9.19907
-9.58541
-9.97551
-10.3673
-10.7584
-11.1462
-11.5275
-11.8992
-12.2573
-12.5978
-12.9161
-13.2072
-13.4654
-13.6848
-13.8587
-13.9799
-14.0405
-14.033
-13.9497
-13.7828
-13.5255
-13.1719
-12.7177
-12.1606
-11.5011
-10.7427
-9.89261
-8.96177
-7.96483
-6.91931
-5.84432
-4.75949
-3.68312
-2.63121
-1.61631
-0.647161
0.270947
1.13624
1.94961
2.71382
3.43279
4.11074
4.7519
5.3601
5.93876
6.49069
7.01854
7.52418
8.00907
8.47506
8.92387
9.35589
9.77203
10.1733
10.5606
10.9348
11.2961
11.6448
11.9819
12.3082
12.622
12.924
13.215
13.4951
13.7647
14.0239
14.2731
14.5124
14.7421
14.9625
15.1736
15.3758
15.5693
15.7541
15.9306
16.0988
16.2591
16.4116
16.5564
16.6937
16.8238
16.9468
17.063
17.1724
17.2753
17.3718
17.4622
17.5466
17.6252
17.6984
17.7661
17.8288
17.8867
17.9403
17.9897
18.0352
18.077
18.1151
18.1499
18.1815
18.21
18.2358
18.259
18.2799
18.2986
18.3153
18.3302
18.3435
18.3553
18.3656
18.3747
18.3826
18.3894
18.395
18.3997
18.4033
18.4059
18.4075
18.4081
18.4077
18.4064
18.404
18.4005
18.396
18.3902
18.383
18.3744
18.3642
18.3521
18.3381
18.3219
18.3032
18.2816
18.2565
18.2273
18.1929
18.1519
18.1024
18.0418
17.9672
17.8752
-2.35658
-2.36224
-2.33482
-2.32085
-2.31986
-2.33127
-2.35434
-2.38834
-2.43267
-2.48687
-2.55063
-2.62375
-2.70614
-2.7978
-2.8988
-3.00928
-3.12942
-3.25948
-3.39974
-3.55051
-3.71213
-3.88497
-4.06937
-4.26576
-4.47443
-4.69575
-4.93006
-5.17757
-5.43855
-5.71312
-6.00137
-6.3033
-6.6187
-6.94744
-7.28905
-7.64302
-8.00866
-8.38504
-8.77113
-9.16555
-9.56674