/*--------------------------------*- C++ -*----------------------------------*\
  =========                 |
  \\      /  F ield         | OpenFOAM: The Open Source CFD Toolbox
   \\    /   O peration     | Website:  https://openfoam.org
    \\  /    A nd           | Version:  7
     \\/     M anipulation  |
\*---------------------------------------------------------------------------*/
FoamFile
{
    version     2.0;
    format      ascii;
    class       surfaceScalarField;
    location    "100";
    object      phi;
}
// * * * * * * * * * * * * * * * * * * * * * * * * * * * * * * * * * * * * * //

dimensions      [0 3 -1 0 0 0 0];

internalField   nonuniform List<scalar> 
97240
(
-6.49408e-08
2.62558e-08
1.63289e-06
-1.43911e-06
1.36156e-06
7.75452e-08
-1.28644e-06
1.21904e-06
6.74019e-08
-1.16072e-06
1.1151e-06
4.56109e-08
-1.0788e-06
1.05086e-06
2.79389e-08
-1.02783e-06
1.00886e-06
1.8967e-08
-9.91933e-07
9.76951e-07
1.49796e-08
-9.62865e-07
9.50004e-07
1.28585e-08
-9.37727e-07
9.26461e-07
1.12636e-08
-9.1571e-07
9.05869e-07
9.83793e-09
-8.96509e-07
8.87957e-07
8.5492e-09
-8.79824e-07
8.72391e-07
7.43014e-09
-8.65324e-07
8.58864e-07
6.45684e-09
-8.52719e-07
8.47098e-07
5.61727e-09
-8.41754e-07
8.36873e-07
4.87794e-09
-8.3225e-07
8.28067e-07
4.17973e-09
-8.24173e-07
8.20791e-07
3.37901e-09
-8.17884e-07
8.15824e-07
2.05479e-09
-2.06992e-08
1.96949e-08
1.70962e-06
-1.72711e-06
1.73397e-06
-8.8707e-08
8.18364e-08
-1.73811e-06
1.73839e-06
-9.02944e-08
9.00082e-08
-1.7344e-06
1.72665e-06
-7.50427e-08
8.27814e-08
-1.71547e-06
1.70209e-06
-5.76122e-08
7.09881e-08
-1.68673e-06
1.67071e-06
-4.51875e-08
6.12043e-08
-1.65389e-06
1.63736e-06
-3.71404e-08
5.36726e-08
-1.62068e-06
1.60471e-06
-3.1618e-08
4.75781e-08
-1.5889e-06
1.57395e-06
-2.73828e-08
4.23319e-08
-1.55926e-06
1.54544e-06
-2.38806e-08
3.76976e-08
-1.53191e-06
1.51921e-06
-2.08959e-08
3.35929e-08
-1.5068e-06
1.49517e-06
-1.83422e-08
2.99667e-08
-1.48382e-06
1.47319e-06
-1.61393e-08
2.67622e-08
-1.46283e-06
1.45314e-06
-1.42271e-08
2.3916e-08
-1.4437e-06
1.43488e-06
-1.25354e-08
2.13492e-08
-1.42631e-06
1.41833e-06
-1.09651e-08
1.89392e-08
-1.41062e-06
1.40348e-06
-9.30909e-09
1.64423e-08
-1.39667e-06
1.39041e-06
-6.8611e-09
1.31181e-08
-1.82598e-08
1.66885e-08
1.83286e-06
-1.83964e-06
1.84502e-06
-7.54521e-08
7.00665e-08
-1.84995e-06
1.85436e-06
-8.57666e-08
8.13536e-08
-1.85789e-06
1.86025e-06
-8.23156e-08
7.99454e-08
-1.86165e-06
1.86216e-06
-7.37117e-08
7.31988e-08
-1.86195e-06
1.86113e-06
-6.62817e-08
6.70931e-08
-1.85977e-06
1.85798e-06
-6.03955e-08
6.21823e-08
-1.85572e-06
1.85311e-06
-5.54224e-08
5.80277e-08
-1.85007e-06
1.84673e-06
-5.08737e-08
5.42098e-08
-1.84298e-06
1.839e-06
-4.65961e-08
5.05755e-08
-1.83464e-06
1.83012e-06
-4.25824e-08
4.7103e-08
-1.82527e-06
1.82031e-06
-3.88486e-08
4.37979e-08
-1.81508e-06
1.80982e-06
-3.53929e-08
4.06572e-08
-1.80432e-06
1.79885e-06
-3.21956e-08
3.76625e-08
-1.79321e-06
1.78764e-06
-2.92043e-08
3.47665e-08
-1.78195e-06
1.77639e-06
-2.63095e-08
3.18623e-08
-1.77076e-06
1.7653e-06
-2.32681e-08
2.87235e-08
-1.7598e-06
1.75437e-06
-1.94549e-08
2.48742e-08
-1.51923e-08
1.39042e-08
1.96399e-06
-1.96899e-06
1.97351e-06
-6.53937e-08
6.08686e-08
-1.97766e-06
1.98151e-06
-7.74038e-08
7.35535e-08
-1.98497e-06
1.98774e-06
-7.73127e-08
7.45396e-08
-1.98997e-06
1.99168e-06
-7.18321e-08
7.01181e-08
-1.99305e-06
1.9941e-06
-6.65529e-08
6.54989e-08
-1.99495e-06
1.99559e-06
-6.21849e-08
6.15346e-08
-1.9961e-06
1.99646e-06
-5.84527e-08
5.80874e-08
-1.9967e-06
1.99682e-06
-5.50185e-08
5.48956e-08
-1.99683e-06
1.99672e-06
-5.17523e-08
5.18541e-08
-1.99651e-06
1.99619e-06
-4.86299e-08
4.89447e-08
-1.99576e-06
1.99524e-06
-4.56516e-08
4.61668e-08
-1.99461e-06
1.99391e-06
-4.28072e-08
4.35099e-08
-1.9931e-06
1.99222e-06
-4.00733e-08
4.0949e-08
-1.99124e-06
1.9902e-06
-3.73961e-08
3.84303e-08
-1.98906e-06
1.98787e-06
-3.46668e-08
3.58494e-08
-1.98658e-06
1.98523e-06
-3.16772e-08
3.30301e-08
-1.98371e-06
1.98204e-06
-2.80863e-08
2.97526e-08
-1.27111e-08
1.16621e-08
2.10465e-06
-2.10856e-06
2.11262e-06
-5.67189e-08
5.26525e-08
-2.11649e-06
2.12007e-06
-6.99908e-08
6.64017e-08
-2.12338e-06
2.12614e-06
-7.18682e-08
6.91053e-08
-2.12848e-06
2.1304e-06
-6.83433e-08
6.64255e-08
-2.13206e-06
2.13345e-06
-6.42741e-08
6.28779e-08
-2.1347e-06
2.13578e-06
-6.06363e-08
5.9548e-08
-2.13678e-06
2.13766e-06
-5.74087e-08
5.65223e-08
-2.13848e-06
2.13921e-06
-5.43946e-08
5.3668e-08
-2.13987e-06
2.14046e-06
-5.15121e-08
5.09245e-08
-2.14099e-06
2.14145e-06
-4.87479e-08
4.82856e-08
-2.14186e-06
2.14221e-06
-4.61038e-08
4.57541e-08
-2.14251e-06
2.14276e-06
-4.3569e-08
4.33217e-08
-2.14296e-06
2.14311e-06
-4.11205e-08
4.09665e-08
-2.14322e-06
2.14328e-06
-3.87064e-08
3.86423e-08
-2.1433e-06
2.14326e-06
-3.62334e-08
3.62682e-08
-2.14316e-06
2.14298e-06
-3.35601e-08
3.37408e-08
-2.14267e-06
2.14222e-06
-3.05651e-08
3.10141e-08
-1.06771e-08
9.80735e-09
2.25547e-06
-2.2586e-06
2.2622e-06
-4.89408e-08
4.53335e-08
-2.26583e-06
2.26926e-06
-6.30118e-08
5.95769e-08
-2.27249e-06
2.27527e-06
-6.64313e-08
6.36537e-08
-2.2777e-06
2.27974e-06
-6.45103e-08
6.24642e-08
-2.28155e-06
2.28312e-06
-6.14419e-08
5.98756e-08
-2.28455e-06
2.28582e-06
-5.83964e-08
5.71207e-08
-2.28702e-06
2.2881e-06
-5.55561e-08
5.44699e-08
-2.28913e-06
2.29007e-06
-5.28456e-08
5.1905e-08
-2.29096e-06
2.29178e-06
-5.02262e-08
4.94094e-08
-2.29255e-06
2.29326e-06
-4.76976e-08
4.69911e-08
-2.29392e-06
2.29453e-06
-4.52653e-08
4.46575e-08
-2.2951e-06
2.29562e-06
-4.29224e-08
4.24049e-08
-2.2961e-06
2.29653e-06
-4.06501e-08
4.02171e-08
-2.29693e-06
2.29727e-06
-3.84079e-08
3.80617e-08
-2.29758e-06
2.29782e-06
-3.61296e-08
3.58865e-08
-2.298e-06
2.29809e-06
-3.37445e-08
3.36511e-08
-2.29807e-06
2.29793e-06
-3.12589e-08
3.13981e-08
-8.9895e-09
8.26676e-09
2.41712e-06
-2.41963e-06
2.42277e-06
-4.20742e-08
3.89294e-08
-2.42611e-06
2.42936e-06
-5.63445e-08
5.30962e-08
-2.43249e-06
2.43527e-06
-6.09667e-08
5.81877e-08
-2.43777e-06
2.43993e-06
-6.04314e-08
5.82701e-08
-2.44188e-06
2.44359e-06
-5.82928e-08
5.65811e-08
-2.44517e-06
2.44659e-06
-5.58184e-08
5.43975e-08
-2.44793e-06
2.44915e-06
-5.33524e-08
5.21265e-08
-2.45032e-06
2.4514e-06
-5.09281e-08
4.98504e-08
-2.45243e-06
2.45338e-06
-4.85517e-08
4.75983e-08
-2.45429e-06
2.45513e-06
-4.62386e-08
4.53951e-08
-2.45594e-06
2.45668e-06
-4.40001e-08
4.32559e-08
-2.45739e-06
2.45804e-06
-4.18345e-08
4.11825e-08
-2.45866e-06
2.45922e-06
-3.97304e-08
3.91678e-08
-2.45975e-06
2.46021e-06
-3.76619e-08
3.7194e-08
-2.46063e-06
2.46098e-06
-3.55916e-08
3.52366e-08
-2.46127e-06
2.46147e-06
-3.35021e-08
3.32981e-08
-2.46158e-06
2.46158e-06
-3.14581e-08
3.14548e-08
-7.58612e-09
6.98384e-09
2.5904e-06
-2.59253e-06
2.59524e-06
-3.61058e-08
3.3391e-08
-2.59825e-06
2.60127e-06
-5.00701e-08
4.70566e-08
-2.60425e-06
2.60698e-06
-5.55232e-08
5.27965e-08
-2.6095e-06
2.61174e-06
-5.61409e-08
5.39022e-08
-2.6138e-06
2.61564e-06
-5.48659e-08
5.30294e-08
-2.61735e-06
2.6189e-06
-5.29616e-08
5.14094e-08
-2.62037e-06
2.62172e-06
-5.08826e-08
4.95317e-08
-2.62302e-06
2.62421e-06
-4.8753e-08
4.75571e-08
-2.62536e-06
2.62643e-06
-4.66236e-08
4.55575e-08
-2.62745e-06
2.6284e-06
-4.45284e-08
4.35768e-08
-2.62932e-06
2.63016e-06
-4.24873e-08
4.164e-08
-2.63097e-06
2.63172e-06
-4.05056e-08
3.97565e-08
-2.63243e-06
2.63308e-06
-3.8581e-08
3.7929e-08
-2.6337e-06
2.63424e-06
-3.67028e-08
3.61541e-08
-2.63474e-06
2.63517e-06
-3.48585e-08
3.44296e-08
-2.63554e-06
2.63582e-06
-3.30643e-08
3.2782e-08
-2.63602e-06
2.63612e-06
-3.14011e-08
3.12919e-08
-6.41552e-09
5.9114e-09
2.7762e-06
-2.77786e-06
2.78019e-06
-3.09597e-08
2.86238e-08
-2.78289e-06
2.78565e-06
-4.42681e-08
4.15047e-08
-2.78845e-06
2.79107e-06
-5.0209e-08
4.7584e-08
-2.79357e-06
2.79583e-06
-5.17235e-08
4.94603e-08
-2.79796e-06
2.79988e-06
-5.12097e-08
4.92854e-08
-2.8017e-06
2.80336e-06
-4.98555e-08
4.8194e-08
-2.80494e-06
2.8064e-06
-4.81722e-08
4.67092e-08
-2.80781e-06
2.80911e-06
-4.63496e-08
4.5045e-08
-2.81037e-06
2.81154e-06
-4.44781e-08
4.33078e-08
-2.81267e-06
2.81372e-06
-4.26104e-08
4.15595e-08
-2.81473e-06
2.81567e-06
-4.07771e-08
3.98361e-08
-2.81658e-06
2.81741e-06
-3.89916e-08
3.81552e-08
-2.81821e-06
2.81894e-06
-3.72616e-08
3.65295e-08
-2.81963e-06
2.82025e-06
-3.559e-08
3.49678e-08
-2.82083e-06
2.82133e-06
-3.39829e-08
3.34829e-08
-2.82177e-06
2.82213e-06
-3.24734e-08
3.21118e-08
-2.82242e-06
2.82263e-06
-3.11382e-08
3.09255e-08
-5.43431e-09
5.00963e-09
2.97532e-06
-2.97679e-06
2.9788e-06
-2.65319e-08
2.45197e-08
-2.9812e-06
2.98371e-06
-3.89561e-08
3.6436e-08
-2.98632e-06
2.98882e-06
-4.51091e-08
4.26097e-08
-2.99125e-06
2.9935e-06
-4.728e-08
4.50332e-08
-2.99564e-06
2.99762e-06
-4.74006e-08
4.54276e-08
-2.9995e-06
3.00124e-06
-4.65487e-08
4.48077e-08
-3.00292e-06
3.00447e-06
-4.52509e-08
4.36967e-08
-3.00597e-06
3.00737e-06
-4.37387e-08
4.23396e-08
-3.00872e-06
3.00999e-06
-4.2132e-08
4.08678e-08
-3.01121e-06
3.01235e-06
-4.05006e-08
3.93581e-08
-3.01346e-06
3.01448e-06
-3.88853e-08
3.78563e-08
-3.01548e-06
3.01639e-06
-3.7308e-08
3.63882e-08
-3.01728e-06
3.01809e-06
-3.57856e-08
3.49747e-08
-3.01886e-06
3.01955e-06
-3.4332e-08
3.36341e-08
-3.0202e-06
3.02078e-06
-3.29648e-08
3.23873e-08
-3.0213e-06
3.02175e-06
-3.17225e-08
3.12729e-08
-3.02214e-06
3.02246e-06
-3.06691e-08
3.03469e-08
-4.60645e-09
4.24625e-09
3.18876e-06
-3.18999e-06
3.19173e-06
-2.27151e-08
2.09748e-08
-3.19387e-06
3.19616e-06
-3.41151e-08
3.18217e-08
-3.19858e-06
3.20094e-06
-4.02608e-08
3.78936e-08
-3.20329e-06
3.2055e-06
-4.28815e-08
4.06734e-08
-3.20764e-06
3.20963e-06
-4.35106e-08
4.15158e-08
-3.21156e-06
3.21336e-06
-4.30989e-08
4.13031e-08
-3.2151e-06
3.21672e-06
-4.21608e-08
4.05359e-08
-3.2183e-06
3.21978e-06
-4.09503e-08
3.9473e-08
-3.22121e-06
3.22256e-06
-3.96074e-08
3.82618e-08
-3.22387e-06
3.22509e-06
-3.82153e-08
3.69906e-08
-3.22628e-06
3.22739e-06
-3.68237e-08
3.57133e-08
-3.22846e-06
3.22946e-06
-3.54621e-08
3.44626e-08
-3.23042e-06
3.23131e-06
-3.41549e-08
3.32655e-08
-3.23216e-06
3.23293e-06
-3.29233e-08
3.2146e-08
-3.23367e-06
3.23433e-06
-3.17907e-08
3.11283e-08
-3.23494e-06
3.23549e-06
-3.07939e-08
3.0247e-08
-3.23599e-06
3.23642e-06
-2.99817e-08
2.95436e-08
-3.95216e-09
3.68311e-09
2.87067e-06
-2.87155e-06
2.87283e-06
-1.94098e-08
1.81262e-08
-2.87445e-06
2.87621e-06
-2.97098e-08
2.79428e-08
-2.87811e-06
2.88e-06
-3.56721e-08
3.37824e-08
-2.8819e-06
2.88372e-06
-3.8565e-08
3.67437e-08
-2.88552e-06
2.8872e-06
-3.95854e-08
3.78979e-08
-2.88885e-06
2.89039e-06
-3.95491e-08
3.80027e-08
-2.8919e-06
2.89332e-06
-3.89385e-08
3.75219e-08
-2.8947e-06
2.896e-06
-3.80141e-08
3.67145e-08
-2.89727e-06
2.89846e-06
-3.69278e-08
3.57352e-08
-2.89962e-06
2.90071e-06
-3.57724e-08
3.46798e-08
-2.90178e-06
2.90277e-06
-3.4605e-08
3.36076e-08
-2.90374e-06
2.90464e-06
-3.34609e-08
3.25562e-08
-2.90552e-06
2.90633e-06
-3.23697e-08
3.15564e-08
-2.90711e-06
2.90783e-06
-3.13568e-08
3.06346e-08
-2.90852e-06
2.90915e-06
-3.04466e-08
2.98148e-08
-2.90975e-06
2.91029e-06
-2.96706e-08
2.91258e-08
-2.9108e-06
2.91127e-06
-2.90638e-08
2.85971e-08
-3.38826e-09
3.11982e-09
3.49937e-06
-3.50027e-06
3.50158e-06
-1.69497e-08
1.56366e-08
-3.50325e-06
3.50512e-06
-2.62943e-08
2.44251e-08
-3.50716e-06
3.50922e-06
-3.19924e-08
2.99302e-08
-3.51133e-06
3.51338e-06
-3.49945e-08
3.29499e-08
-3.51541e-06
3.51735e-06
-3.62598e-08
3.43227e-08
-3.51926e-06
3.52106e-06
-3.64898e-08
3.46858e-08
-3.52283e-06
3.5245e-06
-3.61286e-08
3.44571e-08
-3.52614e-06
3.52768e-06
-3.54314e-08
3.38854e-08
-3.5292e-06
3.53062e-06
-3.45542e-08
3.31261e-08
-3.53202e-06
3.53333e-06
-3.35947e-08
3.22784e-08
-3.53462e-06
3.53583e-06
-3.26142e-08
3.14052e-08
-3.53701e-06
3.53811e-06
-3.16519e-08
3.0547e-08
-3.53918e-06
3.54018e-06
-3.07398e-08
2.97367e-08
-3.54116e-06
3.54206e-06
-2.99045e-08
2.9001e-08
-3.54293e-06
3.54373e-06
-2.91694e-08
2.83619e-08
-3.54451e-06
3.54523e-06
-2.85604e-08
2.7842e-08
-3.54592e-06
3.54656e-06
-2.81022e-08
2.74609e-08
-2.8264e-09
2.56048e-09
4.26567e-06
-4.26656e-06
4.26789e-06
-1.44417e-08
1.31168e-08
-4.26961e-06
4.27155e-06
-2.26951e-08
2.0748e-08
-4.27371e-06
4.27593e-06
-2.79904e-08
2.57708e-08
-4.27824e-06
4.2805e-06
-3.0998e-08
2.87303e-08
-4.28279e-06
4.28499e-06
-3.24513e-08
3.02495e-08
-4.28718e-06
4.28927e-06
-3.29273e-08
3.08386e-08
-4.29133e-06
4.29329e-06
-3.28176e-08
3.08564e-08
-4.29523e-06
4.29706e-06
-3.23618e-08
3.05296e-08
-4.29886e-06
4.30056e-06
-3.17135e-08
3.00073e-08
-4.30224e-06
4.30382e-06
-3.09719e-08
2.9388e-08
-4.30538e-06
4.30684e-06
-3.0201e-08
2.87352e-08
-4.30828e-06
4.30962e-06
-2.94419e-08
2.80906e-08
-4.31095e-06
4.31218e-06
-2.8728e-08
2.74872e-08
-4.3134e-06
4.31453e-06
-2.80855e-08
2.69504e-08
-4.31564e-06
4.31667e-06
-2.75348e-08
2.64985e-08
-4.31768e-06
4.31863e-06
-2.70956e-08
2.61476e-08
-4.31955e-06
4.32042e-06
-2.67833e-08
2.59094e-08
-2.27025e-09
2.00747e-09
5.19996e-06
-5.20075e-06
5.20207e-06
-1.1917e-08
1.05913e-08
-5.20382e-06
5.20582e-06
-1.89563e-08
1.69486e-08
-5.20809e-06
5.21045e-06
-2.36947e-08
2.13304e-08
-5.21295e-06
5.21544e-06
-2.65766e-08
2.40858e-08
-5.21799e-06
5.22046e-06
-2.81316e-08
2.56497e-08
-5.22296e-06
5.22536e-06
-2.88094e-08
2.64064e-08
-5.22776e-06
5.23005e-06
-2.89365e-08
2.66446e-08
-5.23232e-06
5.23449e-06
-2.87257e-08
2.65584e-08
-5.23663e-06
5.23867e-06
-2.83197e-08
2.62811e-08
-5.24068e-06
5.24259e-06
-2.78144e-08
2.59044e-08
-5.24448e-06
5.24626e-06
-2.72725e-08
2.54884e-08
-5.24801e-06
5.24967e-06
-2.67352e-08
2.5073e-08
-5.25131e-06
5.25285e-06
-2.6235e-08
2.46891e-08
-5.25437e-06
5.25581e-06
-2.57958e-08
2.43588e-08
-5.25722e-06
5.25856e-06
-2.54336e-08
2.40958e-08
-5.25988e-06
5.26113e-06
-2.51621e-08
2.39105e-08
-5.26236e-06
5.26354e-06
-2.49895e-08
2.38083e-08
-1.71953e-09
1.45718e-09
6.33856e-06
-6.33954e-06
6.34087e-06
-9.39157e-09
8.06265e-09
-6.34264e-06
6.34471e-06
-1.51047e-08
1.30369e-08
-6.34708e-06
6.34958e-06
-1.91249e-08
1.66141e-08
-6.35228e-06
6.355e-06
-2.1727e-08
1.90021e-08
-6.35783e-06
6.36061e-06
-2.32685e-08
2.04819e-08
-6.36345e-06
6.3662e-06
-2.40761e-08
2.13196e-08
-6.36897e-06
6.37165e-06
-2.44031e-08
2.1728e-08
-6.37432e-06
6.37689e-06
-2.44243e-08
2.18588e-08
-6.37944e-06
6.38188e-06
-2.42622e-08
2.182e-08
-6.38431e-06
6.38662e-06
-2.40026e-08
2.16887e-08
-6.38891e-06
6.3911e-06
-2.37024e-08
2.1517e-08
-6.39326e-06
6.39532e-06
-2.33993e-08
2.13388e-08
-6.39736e-06
6.3993e-06
-2.31222e-08
2.11802e-08
-6.40122e-06
6.40305e-06
-2.28911e-08
2.10583e-08
-6.40487e-06
6.4066e-06
-2.27173e-08
2.09821e-08
-6.40833e-06
6.40998e-06
-2.26089e-08
2.0957e-08
-6.41163e-06
6.41321e-06
-2.25689e-08
2.0984e-08
-1.16571e-09
8.94947e-10
7.72727e-06
-7.72736e-06
7.72872e-06
-6.8513e-09
5.49282e-09
-7.73055e-06
7.73271e-06
-1.11282e-08
8.96635e-09
-7.73521e-06
7.73791e-06
-1.42642e-08
1.15692e-08
-7.74084e-06
7.74384e-06
-1.64165e-08
1.34135e-08
-7.74699e-06
7.75013e-06
-1.78048e-08
1.46592e-08
-7.75337e-06
7.75654e-06
-1.86433e-08
1.54671e-08
-7.75977e-06
7.7629e-06
-1.91082e-08
1.59724e-08
-7.76606e-06
7.76911e-06
-1.93277e-08
1.62757e-08
-7.77217e-06
7.77511e-06
-1.93949e-08
1.64517e-08
-7.77806e-06
7.78088e-06
-1.93773e-08
1.65551e-08
-7.78369e-06
7.78639e-06
-1.9321e-08
1.66236e-08
-7.78908e-06
7.79165e-06
-1.92557e-08
1.66815e-08
-7.79421e-06
7.79667e-06
-1.9204e-08
1.67468e-08
-7.79912e-06
7.80147e-06
-1.91803e-08
1.68306e-08
-7.80381e-06
7.80607e-06
-1.91914e-08
1.69371e-08
-7.80832e-06
7.81049e-06
-1.92408e-08
1.70679e-08
-7.81267e-06
7.81478e-06
-1.93278e-08
1.72212e-08
-5.84925e-10
2.85272e-10
9.4193e-06
-9.42024e-06
9.42169e-06
-4.22945e-09
2.77214e-09
-9.42367e-06
9.42602e-06
-6.937e-09
4.58144e-09
-9.42878e-06
9.43177e-06
-9.01221e-09
6.01932e-09
-9.43506e-06
9.43846e-06
-1.05331e-08
7.13211e-09
-9.44206e-06
9.44569e-06
-1.16115e-08
7.98307e-09
-9.44945e-06
9.45317e-06
-1.2362e-08
8.63759e-09
-9.45699e-06
9.46071e-06
-1.28828e-08
9.15239e-09
-9.4645e-06
9.46817e-06
-1.32482e-08
9.57066e-09
-9.47188e-06
9.47547e-06
-1.35141e-08
9.92601e-09
-9.47908e-06
9.48255e-06
-1.37219e-08
1.02433e-08
-9.48604e-06
9.4894e-06
-1.39006e-08
1.05402e-08
-9.49277e-06
9.496e-06
-1.40684e-08
1.08276e-08
-9.49925e-06
9.50237e-06
-1.42385e-08
1.11129e-08
-9.50551e-06
9.50852e-06
-1.4419e-08
1.14002e-08
-9.51155e-06
9.51447e-06
-1.46118e-08
1.16892e-08
-9.51741e-06
9.52025e-06
-1.48169e-08
1.19785e-08
-9.5231e-06
9.52587e-06
-1.50319e-08
1.22647e-08
7.82183e-11
-4.57176e-10
1.14824e-05
-1.14825e-05
1.14842e-05
-1.36224e-09
-3.51965e-10
-1.14865e-05
1.14893e-05
-2.29176e-09
-4.93685e-10
-1.14926e-05
1.14961e-05
-3.09482e-09
-4.68128e-10
-1.15e-05
1.15041e-05
-3.79027e-09
-2.88115e-10
-1.15085e-05
1.15128e-05
-4.39846e-09
1.54101e-11
-1.15174e-05
1.15219e-05
-4.93934e-09
4.079e-10
-1.15266e-05
1.15311e-05
-5.43057e-09
8.59922e-10
-1.15358e-05
1.15403e-05
-5.88536e-09
1.34842e-09
-1.15449e-05
1.15494e-05
-6.31493e-09
1.85756e-09
-1.15539e-05
1.15582e-05
-6.72785e-09
2.37653e-09
-1.15626e-05
1.15668e-05
-7.13048e-09
2.89786e-09
-1.15711e-05
1.15752e-05
-7.52611e-09
3.4163e-09
-1.15793e-05
1.15833e-05
-7.9168e-09
3.92765e-09
-1.15873e-05
1.15912e-05
-8.30281e-09
4.42801e-09
-1.15951e-05
1.15989e-05
-8.68209e-09
4.91323e-09
-1.16027e-05
1.16063e-05
-9.05173e-09
5.37944e-09
-1.161e-05
1.16136e-05
-9.40823e-09
5.82256e-09
7.55941e-10
-1.07999e-09
8.40632e-06
-8.40619e-06
8.40758e-06
2.13069e-09
-3.52719e-09
-8.40947e-06
8.41171e-06
3.37555e-09
-5.62165e-09
-8.41434e-06
8.41717e-06
4.1405e-09
-6.9777e-09
-8.42028e-06
8.42348e-06
4.47629e-09
-7.68445e-09
-8.42688e-06
8.43029e-06
4.47172e-09
-7.88298e-09
-8.43382e-06
8.43732e-06
4.22053e-09
-7.71776e-09
-8.4409e-06
8.4444e-06
3.80222e-09
-7.30871e-09
-8.44796e-06
8.45143e-06
3.27685e-09
-6.74443e-09
-8.45493e-06
8.45833e-06
2.68742e-09
-6.0879e-09
-8.46176e-06
8.46507e-06
2.06377e-09
-5.38211e-09
-8.46842e-06
8.47164e-06
1.42612e-09
-4.65576e-09
-8.47489e-06
8.47803e-06
7.87651e-10
-3.92713e-09
-8.48119e-06
8.48423e-06
1.58079e-10
-3.20929e-09
-8.4873e-06
8.49027e-06
-4.55132e-10
-2.51158e-09
-8.49325e-06
8.49614e-06
-1.04641e-09
-1.84046e-09
-8.49904e-06
8.50185e-06
-1.61091e-09
-1.20108e-09
-8.50469e-06
8.50742e-06
-2.14434e-09
-5.97743e-10
1.39329e-09
-1.74468e-09
7.31735e-06
-7.31825e-06
7.3197e-06
5.03985e-09
-6.4946e-09
-7.32165e-06
7.32394e-06
8.03534e-09
-1.03287e-08
-7.32658e-06
7.32941e-06
9.99458e-09
-1.28212e-08
-7.33246e-06
7.33558e-06
1.10598e-08
-1.41799e-08
-7.33885e-06
7.34209e-06
1.14383e-08
-1.46855e-08
-7.34543e-06
7.34869e-06
1.13345e-08
-1.46054e-08
-7.35202e-06
7.35525e-06
1.09134e-08
-1.41489e-08
-7.35852e-06
7.36168e-06
1.02938e-08
-1.34621e-08
-7.36488e-06
7.36796e-06
9.55819e-09
-1.2644e-08
-7.37106e-06
7.37406e-06
8.76204e-09
-1.17596e-08
-7.37707e-06
7.37998e-06
7.94142e-09
-1.08502e-08
-7.3829e-06
7.38572e-06
7.11864e-09
-9.94069e-09
-7.38855e-06
7.39129e-06
6.30945e-09
-9.04832e-09
-7.39404e-06
7.3967e-06
5.52461e-09
-8.18452e-09
-7.39938e-06
7.40196e-06
4.77092e-09
-7.35599e-09
-7.40456e-06
7.40707e-06
4.05367e-09
-6.56798e-09
-7.4096e-06
7.41205e-06
3.37707e-09
-5.82436e-09
2.09285e-09
-2.49093e-09
6.3704e-06
-6.37138e-06
6.37297e-06
8.11632e-09
-9.71282e-09
-6.37509e-06
6.37753e-06
1.28517e-08
-1.52935e-08
-6.38029e-06
6.3832e-06
1.58817e-08
-1.87881e-08
-6.38629e-06
6.38939e-06
1.75061e-08
-2.06092e-08
-6.39259e-06
6.39572e-06
1.81004e-08
-2.12373e-08
-6.3989e-06
6.40198e-06
1.80074e-08
-2.10937e-08
-6.40509e-06
6.40809e-06
1.74856e-08
-2.04846e-08
-6.4111e-06
6.41399e-06
1.67094e-08
-1.96084e-08
-6.4169e-06
6.41969e-06
1.5793e-08
-1.85912e-08
-6.4225e-06
6.4252e-06
1.48098e-08
-1.75114e-08
-6.4279e-06
6.43051e-06
1.38042e-08
-1.64149e-08
-6.43313e-06
6.43565e-06
1.28025e-08
-1.5328e-08
-6.43819e-06
6.44063e-06
1.1823e-08
-1.42686e-08
-6.44309e-06
6.44546e-06
1.08769e-08
-1.32475e-08
-6.44784e-06
6.45014e-06
9.9705e-09
-1.22705e-08
-6.45245e-06
6.45468e-06
9.10877e-09
-1.13418e-08
-6.45692e-06
6.45909e-06
8.29522e-09
-1.04646e-08
2.89121e-09
-3.35262e-09
5.54546e-06
-5.54759e-06
5.5494e-06
1.15272e-08
-1.3341e-08
-5.55175e-06
5.55441e-06
1.80162e-08
-2.06753e-08
-5.55736e-06
5.56038e-06
2.19633e-08
-2.49949e-08
-5.56354e-06
5.56665e-06
2.39349e-08
-2.70445e-08
-5.5698e-06
5.57283e-06
2.45441e-08
-2.75816e-08
-5.57587e-06
5.57877e-06
2.43049e-08
-2.72138e-08
-5.58167e-06
5.58444e-06
2.35745e-08
-2.63449e-08
-5.5872e-06
5.58983e-06
2.25748e-08
-2.52155e-08
-5.59247e-06
5.59499e-06
2.14411e-08
-2.39658e-08
-5.59751e-06
5.59993e-06
2.02542e-08
-2.2676e-08
-5.60235e-06
5.60468e-06
1.90595e-08
-2.13893e-08
-5.60701e-06
5.60925e-06
1.78822e-08
-2.01283e-08
-5.61151e-06
5.61367e-06
1.67389e-08
-1.89081e-08
-5.61585e-06
5.61794e-06
1.56396e-08
-1.77374e-08
-5.62005e-06
5.62208e-06
1.4589e-08
-1.66199e-08
-5.62412e-06
5.62608e-06
1.35907e-08
-1.55584e-08
-5.62806e-06
5.62996e-06
1.26472e-08
-1.45548e-08
3.81709e-09
-4.34706e-09
4.82853e-06
-4.82986e-06
4.83196e-06
1.54288e-08
-1.75378e-08
-4.83462e-06
4.83753e-06
2.36552e-08
-2.65698e-08
-4.84069e-06
4.84385e-06
2.83142e-08
-3.14821e-08
-4.84708e-06
4.85018e-06
3.03749e-08
-3.34791e-08
-4.85326e-06
4.85618e-06
3.07754e-08
-3.3695e-08
-4.85905e-06
4.86176e-06
3.02284e-08
-3.29427e-08
-4.86443e-06
4.86696e-06
2.91862e-08
-3.17164e-08
-4.86946e-06
4.87183e-06
2.79041e-08
-3.02806e-08
-4.87419e-06
4.87643e-06
2.65239e-08
-2.87737e-08
-4.87867e-06
4.88081e-06
2.51218e-08
-2.72655e-08
-4.88295e-06
4.885e-06
2.37364e-08
-2.57886e-08
-4.88705e-06
4.88902e-06
2.2387e-08
-2.4358e-08
-4.89099e-06
4.89289e-06
2.10861e-08
-2.29836e-08
-4.89479e-06
4.89662e-06
1.98409e-08
-2.16708e-08
-4.89845e-06
4.90021e-06
1.86538e-08
-2.04208e-08
-4.90199e-06
4.90369e-06
1.75268e-08
-1.92348e-08
-4.90541e-06
4.90705e-06
1.6461e-08
-1.81132e-08
4.86678e-09
-5.42935e-09
4.20356e-06
-4.20418e-06
4.20667e-06
1.99876e-08
-2.24775e-08
-4.20967e-06
4.21284e-06
2.98305e-08
-3.30021e-08
-4.21619e-06
4.21946e-06
3.49408e-08
-3.82206e-08
-4.22271e-06
4.22576e-06
3.67853e-08
-3.98385e-08
-4.22873e-06
4.23148e-06
3.67422e-08
-3.94964e-08
-4.23414e-06
4.23662e-06
3.57309e-08
-3.82096e-08
-4.23903e-06
4.24128e-06
3.42862e-08
-3.6545e-08
-4.2435e-06
4.24558e-06
3.26763e-08
-3.4767e-08
-4.24765e-06
4.2496e-06
3.10308e-08
-3.29917e-08
-4.25155e-06
4.2534e-06
2.94091e-08
-3.12658e-08
-4.25525e-06
4.25702e-06
2.7836e-08
-2.96052e-08
-4.25878e-06
4.26047e-06
2.63207e-08
-2.80131e-08
-4.26216e-06
4.26378e-06
2.48699e-08
-2.64932e-08
-4.2654e-06
4.26696e-06
2.34871e-08
-2.50473e-08
-4.26852e-06
4.27002e-06
2.21722e-08
-2.36742e-08
-4.27153e-06
4.27297e-06
2.09257e-08
-2.23736e-08
-4.27442e-06
4.27582e-06
1.97471e-08
-2.11443e-08
5.92961e-09
-6.37678e-09
3.65845e-06
-3.66153e-06
3.66448e-06
2.53828e-08
-2.83374e-08
-3.6678e-06
3.67119e-06
3.65233e-08
-3.99137e-08
-3.67469e-06
3.67802e-06
4.17708e-08
-4.50994e-08
-3.68122e-06
3.68415e-06
4.30528e-08
-4.59835e-08
-3.68693e-06
3.68945e-06
4.23334e-08
-4.48646e-08
-3.69186e-06
3.69406e-06
4.07208e-08
-4.29252e-08
-3.69618e-06
3.69814e-06
3.88086e-08
-4.07732e-08
-3.70005e-06
3.70184e-06
3.68476e-08
-3.86394e-08
-3.70359e-06
3.70525e-06
3.49342e-08
-3.65971e-08
-3.70689e-06
3.70845e-06
3.30989e-08
-3.46603e-08
-3.71e-06
3.71148e-06
3.13467e-08
-3.28233e-08
-3.71294e-06
3.71434e-06
2.96744e-08
-3.10769e-08
-3.71574e-06
3.71707e-06
2.80825e-08
-2.94186e-08
-3.7184e-06
3.71968e-06
2.6571e-08
-2.78468e-08
-3.72095e-06
3.72217e-06
2.51377e-08
-2.63586e-08
-3.72338e-06
3.72455e-06
2.37816e-08
-2.49527e-08
-3.72572e-06
3.72685e-06
2.25009e-08
-2.36265e-08
6.66157e-09
-6.74446e-09
3.18508e-06
-3.18785e-06
3.1913e-06
3.17706e-08
-3.52205e-08
-3.19485e-06
3.19841e-06
4.3635e-08
-4.71965e-08
-3.20202e-06
3.20534e-06
4.86603e-08
-5.19854e-08
-3.20845e-06
3.21122e-06
4.9037e-08
-5.18144e-08
-3.2138e-06
3.21608e-06
4.74454e-08
-4.97347e-08
-3.21821e-06
3.22012e-06
4.51326e-08
-4.70426e-08
-3.22192e-06
3.22355e-06
4.27126e-08
-4.43523e-08
-3.22512e-06
3.22656e-06
4.03882e-08
-4.18358e-08
-3.22796e-06
3.22926e-06
3.82043e-08
-3.95094e-08
-3.23054e-06
3.23173e-06
3.61562e-08
-3.73499e-08
-3.23289e-06
3.23399e-06
3.42266e-08
-3.53282e-08
-3.23507e-06
3.23609e-06
3.23995e-08
-3.34217e-08
-3.2371e-06
3.23805e-06
3.06694e-08
-3.16215e-08
-3.23898e-06
3.23987e-06
2.90331e-08
-2.99227e-08
-3.24075e-06
3.24158e-06
2.74866e-08
-2.83202e-08
-3.2424e-06
3.24318e-06
2.60286e-08
-2.68128e-08
-3.24396e-06
3.2447e-06
2.4656e-08
-2.53976e-08
6.39662e-09
-4.68339e-09
2.77129e-06
-2.77618e-06
2.78007e-06
3.91343e-08
-4.30335e-08
-2.7839e-06
2.78781e-06
5.11476e-08
-5.50572e-08
-2.79167e-06
2.79508e-06
5.55722e-08
-5.899e-08
-2.79816e-06
2.80078e-06
5.47185e-08
-5.73471e-08
-2.80309e-06
2.80502e-06
5.20403e-08
-5.39756e-08
-2.8067e-06
2.8081e-06
4.88848e-08
-5.02822e-08
-2.80931e-06
2.81031e-06
4.58631e-08
-4.68724e-08
-2.81119e-06
2.81192e-06
4.31108e-08
-4.38415e-08
-2.81255e-06
2.81307e-06
4.06096e-08
-4.11323e-08
-2.81351e-06
2.81387e-06
3.83137e-08
-3.86726e-08
-2.81416e-06
2.81438e-06
3.61801e-08
-3.64029e-08
-2.81454e-06
2.81464e-06
3.41778e-08
-3.42829e-08
-2.81469e-06
2.81469e-06
3.22934e-08
-3.22944e-08
-2.81464e-06
2.81455e-06
3.05197e-08
-3.04274e-08
-2.81441e-06
2.81423e-06
2.88501e-08
-2.8674e-08
-2.81401e-06
2.81375e-06
2.72837e-08
-2.7034e-08
-2.81346e-06
2.81315e-06
2.5819e-08
-2.55085e-08
9.49857e-10
8.74992e-10
2.41117e-06
-2.41748e-06
2.42324e-06
4.77804e-08
-5.35439e-08
-2.4287e-06
2.43378e-06
5.96721e-08
-6.47549e-08
-2.43805e-06
2.44119e-06
6.26945e-08
-6.58462e-08
-2.44345e-06
2.44475e-06
5.98992e-08
-6.12043e-08
-2.44522e-06
2.44491e-06
5.54957e-08
-5.5192e-08
-2.44391e-06
2.44235e-06
5.09986e-08
-4.94396e-08
-2.44025e-06
2.43776e-06
4.6998e-08
-4.45109e-08
-2.43485e-06
2.43168e-06
4.35317e-08
-4.03685e-08
-2.42818e-06
2.42452e-06
4.04871e-08
-3.68295e-08
-2.42058e-06
2.41656e-06
3.77553e-08
-3.37366e-08
-2.41231e-06
2.40804e-06
3.52568e-08
-3.09811e-08
-2.40357e-06
2.39912e-06
3.29401e-08
-2.84918e-08
-2.39452e-06
2.38996e-06
3.07821e-08
-2.62302e-08
-2.38528e-06
2.38068e-06
2.87695e-08
-2.41705e-08
-2.37598e-06
2.37138e-06
2.68931e-08
-2.22939e-08
-2.36669e-06
2.36213e-06
2.51521e-08
-2.05909e-08
-2.3575e-06
2.35301e-06
2.35503e-08
-1.90625e-08
2.95451e-08
2.07145e-06
-2.14046e-06
2.13885e-06
6.0801e-08
-5.91852e-08
-2.1346e-06
2.12681e-06
7.0246e-08
-6.24609e-08
-2.11549e-06
2.10115e-06
6.65446e-08
-5.22119e-08
-2.08368e-06
2.06445e-06
5.77315e-08
-3.85032e-08
-2.04358e-06
2.02266e-06
4.84838e-08
-2.75713e-08
-2.00138e-06
1.98103e-06
4.06136e-08
-2.02633e-08
-1.96099e-06
1.94225e-06
3.45176e-08
-1.57789e-08
-1.92407e-06
1.90722e-06
2.98915e-08
-1.3047e-08
-1.89095e-06
1.87591e-06
2.63096e-08
-1.1271e-08
-1.86139e-06
1.84794e-06
2.34358e-08
-9.98832e-09
-1.83493e-06
1.82284e-06
2.10474e-08
-8.96818e-09
-1.81112e-06
1.80022e-06
1.90021e-08
-8.09858e-09
-1.78961e-06
1.77972e-06
1.72184e-08
-7.33121e-09
-1.77009e-06
1.76108e-06
1.56452e-08
-6.64484e-09
-1.7523e-06
1.74408e-06
1.42494e-08
-6.03034e-09
-1.73604e-06
1.72851e-06
1.30126e-08
-5.48584e-09
-1.72115e-06
1.71424e-06
1.1939e-08
-5.03532e-09
1.04126e-08
-2.68325e-08
1.63914e-08
-2.84895e-08
4.65468e-08
-1.81127e-08
-6.1374e-08
7.16377e-08
-1.03184e-08
-7.69878e-08
7.74426e-08
-5.13892e-10
-7.36331e-08
6.62097e-08
7.36157e-09
-5.62039e-08
4.41002e-08
1.20382e-08
-3.06098e-08
1.57975e-08
1.47426e-08
-5.50667e-11
-1.68823e-08
1.68667e-08
3.47951e-08
-5.39467e-08
1.90849e-08
7.41048e-08
-9.55349e-08
2.13659e-08
1.17899e-07
-1.41518e-07
2.3556e-08
1.66021e-07
-1.91664e-07
2.55814e-08
2.18026e-07
-2.45456e-07
2.73708e-08
2.73526e-07
-3.02428e-07
2.88431e-08
3.31894e-07
-3.62133e-07
3.01822e-08
3.92661e-07
-4.23914e-07
3.1197e-08
4.55416e-07
-4.87345e-07
3.18756e-08
5.19502e-07
-5.51969e-07
3.24143e-08
5.84574e-07
-6.17522e-07
3.28967e-08
6.50271e-07
-6.83384e-07
3.30639e-08
7.16239e-07
-7.49418e-07
3.31306e-08
7.82409e-07
-8.15376e-07
3.29216e-08
8.48265e-07
-8.81077e-07
3.27683e-08
9.13805e-07
-9.46404e-07
3.25571e-08
9.78914e-07
-1.01146e-06
3.25073e-08
1.04353e-06
-1.0758e-06
3.22371e-08
1.10758e-06
-1.13956e-06
3.19431e-08
1.17101e-06
-1.20268e-06
3.16363e-08
1.23379e-06
-1.26512e-06
3.12975e-08
1.29588e-06
-1.32686e-06
3.09456e-08
1.35724e-06
-1.38783e-06
3.056e-08
1.41781e-06
-1.44799e-06
3.01493e-08
1.47752e-06
-1.50724e-06
2.96948e-08
1.53629e-06
-1.56549e-06
2.91828e-08
1.59396e-06
-1.62223e-06
2.82573e-08
1.65037e-06
-1.67797e-06
2.75882e-08
1.70545e-06
-1.73231e-06
2.68561e-08
1.75871e-06
-1.7851e-06
2.63896e-08
1.81064e-06
-1.83609e-06
2.54526e-08
1.86058e-06
-1.88456e-06
2.39896e-08
1.90825e-06
-1.9311e-06
2.28556e-08
1.95335e-06
-1.97567e-06
2.23353e-08
1.99739e-06
-2.01928e-06
2.19147e-08
2.04224e-06
-2.06643e-06
2.42128e-08
2.0936e-06
-2.12636e-06
3.27863e-08
2.16233e-06
-2.18187e-06
1.95766e-08
2.19072e-06
-2.20815e-06
1.74701e-08
2.22695e-06
-2.24557e-06
1.86765e-08
2.265e-06
-2.28392e-06
1.9e-08
2.3024e-06
-2.32032e-06
1.80066e-08
2.33807e-06
-2.35455e-06
1.65838e-08
2.3702e-06
-2.38486e-06
1.47656e-08
2.39903e-06
-2.41161e-06
1.27073e-08
2.42319e-06
-2.43354e-06
1.04896e-08
2.44286e-06
-2.45088e-06
8.16692e-09
2.45827e-06
-2.46379e-06
5.68538e-09
2.46812e-06
-2.47093e-06
2.98161e-09
2.47247e-06
-2.47258e-06
2.91305e-10
2.47176e-06
-2.47021e-06
-1.34764e-09
2.46743e-06
-2.4634e-06
-3.8195e-09
2.4585e-06
-2.45225e-06
-6.03697e-09
2.44522e-06
-2.43699e-06
-8.00735e-09
2.42801e-06
-2.41796e-06
-9.82191e-09
2.40723e-06
-2.39523e-06
-1.17751e-08
2.38241e-06
-2.36837e-06
-1.38092e-08
2.35367e-06
-2.33774e-06
-1.56977e-08
2.32105e-06
-2.30352e-06
-1.73076e-08
2.28548e-06
-2.26612e-06
-1.91523e-08
2.24629e-06
-2.22529e-06
-2.07945e-08
2.20382e-06
-2.18146e-06
-2.21641e-08
2.1587e-06
-2.13489e-06
-2.36379e-08
2.11067e-06
-2.08556e-06
-2.49619e-08
2.05998e-06
-2.0336e-06
-2.62616e-08
2.00642e-06
-1.9783e-06
-2.80116e-08
1.94998e-06
-1.92093e-06
-2.89623e-08
1.89105e-06
-1.85995e-06
-3.10165e-08
1.82766e-06
-1.79381e-06
-3.37805e-08
1.7625e-06
-1.73718e-06
-2.52522e-08
1.71113e-06
-1.68212e-06
-2.89601e-08
1.6528e-06
-1.62261e-06
-3.01598e-08
1.59238e-06
-1.56208e-06
-3.03094e-08
1.53062e-06
-1.49591e-06
-3.47748e-08
1.4525e-06
-1.41973e-06
-3.28731e-08
1.4004e-06
-1.37244e-06
-2.8085e-08
1.34086e-06
-1.31317e-06
-2.78685e-08