/*--------------------------------*- C++ -*----------------------------------*\
  =========                 |
  \\      /  F ield         | OpenFOAM: The Open Source CFD Toolbox
   \\    /   O peration     | Website:  https://openfoam.org
    \\  /    A nd           | Version:  7
     \\/     M anipulation  |
\*---------------------------------------------------------------------------*/
FoamFile
{
    version     2.0;
    format      ascii;
    class       volVectorField;
    location    "100";
    object      U;
}
// * * * * * * * * * * * * * * * * * * * * * * * * * * * * * * * * * * * * * //

dimensions      [0 1 -1 0 0 0 0];

internalField   nonuniform List<vector> 
48900
(
(10.1555 0.422442 0)
(8.81604 -0.790409 0)
(7.84463 -0.155174 0)
(7.12251 -0.00342069 0)
(6.67051 0.0206783 0)
(6.384 0.0218798 0)
(6.17351 0.0197158 0)
(5.99844 0.0170598 0)
(5.8459 0.0144833 0)
(5.71232 0.012254 0)
(5.59603 0.0104485 0)
(5.49498 0.00904389 0)
(5.40716 0.00791051 0)
(5.3308 0.00697512 0)
(5.26439 0.00615924 0)
(5.20694 0.00536078 0)
(5.15848 0.00439957 0)
(5.12025 0.00466757 0)
(9.99731 0.0258694 0)
(10.1329 0.0872577 0)
(10.1782 0.100197 0)
(10.1339 0.105872 0)
(10.0045 0.0959184 0)
(9.82657 0.0852591 0)
(9.6317 0.0765474 0)
(9.43843 0.0693133 0)
(9.25523 0.063011 0)
(9.085 0.0574233 0)
(8.92817 0.052475 0)
(8.78436 0.0481197 0)
(8.65283 0.0442579 0)
(8.53273 0.0407991 0)
(8.42332 0.0376109 0)
(8.32401 0.0344654 0)
(8.23463 0.0308245 0)
(8.15578 0.0248419 0)
(10.0006 0.0208212 0)
(10.0607 0.0955403 0)
(10.1149 0.116059 0)
(10.1533 0.116454 0)
(10.1685 0.109886 0)
(10.1662 0.104201 0)
(10.1515 0.100093 0)
(10.1271 0.0968355 0)
(10.0942 0.0937366 0)
(10.0536 0.0905416 0)
(10.0066 0.0872339 0)
(9.95416 0.0838549 0)
(9.89763 0.0804426 0)
(9.83824 0.0769906 0)
(9.77721 0.0734215 0)
(9.7157 0.0695086 0)
(9.65484 0.0646683 0)
(9.59542 0.0573922 0)
(10.0006 0.0185073 0)
(10.0437 0.0831415 0)
(10.0863 0.10321 0)
(10.1212 0.108314 0)
(10.1439 0.10557 0)
(10.1576 0.102374 0)
(10.1661 0.0999637 0)
(10.1712 0.0981215 0)
(10.1737 0.0964445 0)
(10.1738 0.094758 0)
(10.1716 0.0930248 0)
(10.1672 0.0912533 0)
(10.1609 0.0894377 0)
(10.1527 0.0875302 0)
(10.1429 0.0854089 0)
(10.1314 0.0828183 0)
(10.1184 0.0792431 0)
(10.1032 0.0738658 0)
(10.0005 0.01536 0)
(10.0333 0.0718208 0)
(10.0705 0.0934288 0)
(10.1016 0.100615 0)
(10.1237 0.100224 0)
(10.1393 0.0985214 0)
(10.151 0.0970138 0)
(10.1604 0.0957953 0)
(10.1681 0.0946512 0)
(10.1744 0.0934709 0)
(10.1794 0.0922383 0)
(10.1833 0.0909641 0)
(10.1861 0.0896421 0)
(10.188 0.0882259 0)
(10.189 0.086605 0)
(10.1892 0.0845702 0)
(10.1882 0.0817841 0)
(10.1854 0.0779639 0)
(10.0005 0.0129184 0)
(10.0255 0.0619162 0)
(10.058 0.0839585 0)
(10.0863 0.0928462 0)
(10.1077 0.0944285 0)
(10.1236 0.0939939 0)
(10.1362 0.0932316 0)
(10.1467 0.09249 0)
(10.1557 0.0917202 0)
(10.1636 0.0908774 0)
(10.1704 0.0899642 0)
(10.1763 0.0889937 0)
(10.1813 0.0879649 0)
(10.1855 0.0868405 0)
(10.189 0.0855361 0)
(10.1917 0.0839089 0)
(10.1932 0.0817969 0)
(10.1931 0.079222 0)
(10.0004 0.0108833 0)
(10.0195 0.0531882 0)
(10.0474 0.074934 0)
(10.073 0.0850342 0)
(10.0936 0.0882711 0)
(10.1096 0.0889988 0)
(10.1225 0.08895 0)
(10.1335 0.0886628 0)
(10.1431 0.0882353 0)
(10.1515 0.0876893 0)
(10.159 0.0870502 0)
(10.1656 0.0863405 0)
(10.1714 0.0855671 0)
(10.1765 0.0847078 0)
(10.1808 0.0837107 0)
(10.1843 0.0825036 0)
(10.1866 0.0810541 0)
(10.1875 0.0795253 0)
(10.0004 0.00919029 0)
(10.015 0.0456312 0)
(10.0384 0.0664891 0)
(10.0612 0.0772862 0)
(10.0806 0.0818202 0)
(10.0964 0.0835844 0)
(10.1095 0.0842283 0)
(10.1207 0.0844024 0)
(10.1306 0.08432 0)
(10.1394 0.0840663 0)
(10.1473 0.0836942 0)
(10.1542 0.0832401 0)
(10.1605 0.0827224 0)
(10.1659 0.082138 0)
(10.1706 0.0814696 0)
(10.1744 0.0807049 0)
(10.1772 0.0798935 0)
(10.1787 0.0792433 0)
(10.0003 0.00777656 0)
(10.0116 0.0391234 0)
(10.0311 0.0587095 0)
(10.0511 0.0697646 0)
(10.0689 0.0752205 0)
(10.0841 0.0778411 0)
(10.0971 0.0791192 0)
(10.1084 0.0797464 0)
(10.1184 0.0800126 0)
(10.1274 0.0800547 0)
(10.1355 0.0799532 0)
(10.1427 0.0797605 0)
(10.1492 0.0795094 0)
(10.1549 0.0792171 0)
(10.1598 0.0788975 0)
(10.1639 0.0785823 0)
(10.167 0.0783645 0)
(10.1691 0.0784479 0)
(10.0002 0.00658952 0)
(10.0091 0.0335233 0)
(10.0253 0.0515999 0)
(10.0426 0.062571 0)
(10.0588 0.0686172 0)
(10.0731 0.0718936 0)
(10.0857 0.0737103 0)
(10.0968 0.0747525 0)
(10.1068 0.075353 0)
(10.1159 0.0756858 0)
(10.124 0.0758545 0)
(10.1314 0.0759269 0)
(10.138 0.0759508 0)
(10.1438 0.0759622 0)
(10.149 0.075999 0)
(10.1533 0.0761212 0)
(10.1568 0.0764371 0)
(10.1594 0.0771245 0)
(10.0002 0.00559158 0)
(10.0072 0.0286916 0)
(10.0206 0.0451259 0)
(10.0356 0.0557439 0)
(10.0502 0.0621011 0)
(10.0635 0.0658449 0)
(10.0755 0.0680932 0)
(10.0863 0.0694938 0)
(10.0961 0.0703978 0)
(10.105 0.0710031 0)
(10.1132 0.0714312 0)
(10.1206 0.0717639 0)
(10.1272 0.0720616 0)
(10.1332 0.0723753 0)
(10.1385 0.0727596 0)
(10.143 0.0732879 0)
(10.1469 0.0740667 0)
(10.15 0.0752406 0)
(10.0002 0.0048169 0)
(10.0058 0.0246691 0)
(10.017 0.0394739 0)
(10.0301 0.0495514 0)
(10.0433 0.0559794 0)
(10.0556 0.060007 0)
(10.067 0.0625678 0)
(10.0774 0.0642531 0)
(10.0869 0.065412 0)
(10.0957 0.0662544 0)
(10.1037 0.0669141 0)
(10.1111 0.0674832 0)
(10.1177 0.0680319 0)
(10.1238 0.0686213 0)
(10.1292 0.0693146 0)
(10.1339 0.070188 0)
(10.1381 0.0713373 0)
(10.1416 0.0728751 0)
(10.0001 0.00410415 0)
(10.0048 0.0214014 0)
(10.0144 0.03471 0)
(10.0259 0.0441637 0)
(10.0379 0.0504943 0)
(10.0494 0.0546546 0)
(10.0602 0.0574181 0)
(10.0702 0.0593126 0)
(10.0795 0.0606726 0)
(10.0881 0.0617099 0)
(10.096 0.0625646 0)
(10.1033 0.0633354 0)
(10.1099 0.0640987 0)
(10.116 0.064921 0)
(10.1215 0.0658682 0)
(10.1264 0.0670137 0)
(10.1308 0.0684395 0)
(10.1347 0.0702315 0)
(10.0001 0.00339758 0)
(10.004 0.0180919 0)
(10.012 0.0297169 0)
(10.022 0.0383273 0)
(10.0327 0.0443739 0)
(10.0433 0.0485397 0)
(10.0535 0.0514317 0)
(10.0631 0.0534983 0)
(10.0721 0.055044 0)
(10.0805 0.0562732 0)
(10.0882 0.0573268 0)
(10.0955 0.058306 0)
(10.1021 0.0592905 0)
(10.1082 0.0603486 0)
(10.1139 0.0615446 0)
(10.119 0.0629439 0)
(10.1237 0.064612 0)
(10.128 0.0666101 0)
(10.0001 0.00269856 0)
(10.0032 0.0147695 0)
(10.0099 0.0245473 0)
(10.0185 0.0320831 0)
(10.028 0.0376227 0)
(10.0377 0.041621 0)
(10.0472 0.0445246 0)
(10.0564 0.0466909 0)
(10.065 0.0483809 0)
(10.0732 0.0497789 0)
(10.0809 0.0510187 0)
(10.088 0.0521981 0)
(10.0947 0.0533944 0)
(10.1009 0.0546733 0)
(10.1067 0.0560926 0)
(10.1121 0.0577053 0)
(10.1171 0.0595599 0)
(10.1218 0.0616962 0)
(10.0001 0.00200446 0)
(10.0026 0.0114473 0)
(10.0082 0.0192281 0)
(10.0156 0.0254511 0)
(10.024 0.0302304 0)
(10.0328 0.0338441 0)
(10.0417 0.0365946 0)
(10.0503 0.0387442 0)
(10.0587 0.0404988 0)
(10.0667 0.0420104 0)
(10.0743 0.0433953 0)
(10.0814 0.0447402 0)
(10.0882 0.0461134 0)
(10.0946 0.0475719 0)
(10.1006 0.0491624 0)
(10.1062 0.050924 0)
(10.1116 0.0528886 0)
(10.1168 0.0550777 0)
(10.0001 0.00130024 0)
(10.0022 0.00809154 0)
(10.0069 0.013721 0)
(10.0133 0.0183854 0)
(10.0208 0.0221285 0)
(10.0289 0.025102 0)
(10.0372 0.0274883 0)
(10.0455 0.0294572 0)
(10.0536 0.0311511 0)
(10.0614 0.0326798 0)
(10.0689 0.0341302 0)
(10.0762 0.0355703 0)
(10.083 0.0370512 0)
(10.0896 0.0386153 0)
(10.0959 0.0402958 0)
(10.1019 0.0421165 0)
(10.1077 0.0440938 0)
(10.1133 0.0462362 0)
(10.0001 0.000547943 0)
(10.0019 0.00458788 0)
(10.0061 0.0078623 0)
(10.0119 0.0106945 0)
(10.0188 0.0131015 0)
(10.0264 0.0151493 0)
(10.0343 0.016923 0)
(10.0423 0.0185058 0)
(10.0502 0.0199705 0)
(10.058 0.0213775 0)
(10.0656 0.0227743 0)
(10.073 0.0241997 0)
(10.08 0.0256839 0)
(10.0869 0.0272487 0)
(10.0934 0.0289108 0)
(10.0998 0.0306805 0)
(10.106 0.0325614 0)
(10.112 0.0345514 0)
(10.0001 -0.00033672 0)
(10.0018 0.000668825 0)
(10.0059 0.00124166 0)
(10.0115 0.00188813 0)
(10.0183 0.00261941 0)
(10.0258 0.00343594 0)
(10.0336 0.00433333 0)
(10.0417 0.00530776 0)
(10.0497 0.0063567 0)
(10.0576 0.00748057 0)
(10.0654 0.00868074 0)
(10.0729 0.00995987 0)
(10.0802 0.0113205 0)
(10.0874 0.0127636 0)
(10.0943 0.0142884 0)
(10.101 0.0158919 0)
(10.1076 0.0175682 0)
(10.1139 0.0193086 0)
(10.0001 -0.00115866 0)
(10.0021 -0.00369161 0)
(10.0065 -0.00611531 0)
(10.0127 -0.00787898 0)
(10.02 -0.00898582 0)
(10.028 -0.00951862 0)
(10.0363 -0.00958821 0)
(10.0448 -0.00929942 0)
(10.0532 -0.00873899 0)
(10.0614 -0.00797193 0)
(10.0695 -0.00704444 0)
(10.0774 -0.00599038 0)
(10.085 -0.0048328 0)
(10.0925 -0.00358891 0)
(10.0997 -0.0022736 0)
(10.1067 -0.000899486 0)
(10.1136 0.000521812 0)
(10.1202 0.00197786 0)
(10.0001 -0.00198088 0)
(10.0025 -0.00754853 0)
(10.0078 -0.0125179 0)
(10.0149 -0.0162127 0)
(10.0232 -0.0186975 0)
(10.032 -0.0201745 0)
(10.0411 -0.0208799 0)
(10.0501 -0.0210213 0)
(10.0589 -0.0207615 0)
(10.0675 -0.0202163 0)
(10.0759 -0.0194667 0)
(10.0841 -0.0185686 0)
(10.092 -0.0175592 0)
(10.0997 -0.0164658 0)
(10.1071 -0.0153091 0)
(10.1143 -0.0141054 0)
(10.1214 -0.0128684 0)
(10.1282 -0.0116111 0)
(10.0001 -0.00289268 0)
(10.0032 -0.0116765 0)
(10.0097 -0.0192038 0)
(10.0183 -0.0246619 0)
(10.0279 -0.0282647 0)
(10.0379 -0.0304084 0)
(10.0478 -0.0315012 0)
(10.0574 -0.0318729 0)
(10.0668 -0.0317624 0)
(10.0758 -0.0313292 0)
(10.0845 -0.0306788 0)
(10.0929 -0.0298788 0)
(10.1011 -0.0289733 0)
(10.109 -0.0279928 0)
(10.1166 -0.0269595 0)
(10.124 -0.0258899 0)
(10.1312 -0.0247975 0)
(10.1382 -0.0236943 0)
(10.0002 -0.00393917 0)
(10.0041 -0.0162925 0)
(10.0126 -0.026416 0)
(10.0231 -0.0334265 0)
(10.0344 -0.03783 0)
(10.0456 -0.0403184 0)
(10.0565 -0.0415277 0)
(10.0668 -0.0419228 0)
(10.0767 -0.0418127 0)
(10.0861 -0.0413873 0)
(10.0951 -0.0407624 0)
(10.1037 -0.0400063 0)
(10.112 -0.0391616 0)
(10.1201 -0.038257 0)
(10.1278 -0.0373121 0)
(10.1353 -0.0363416 0)
(10.1426 -0.0353574 0)
(10.1497 -0.0343695 0)
(10.0002 -0.00515087 0)
(10.0056 -0.0216019 0)
(10.0166 -0.034309 0)
(10.0295 -0.042589 0)
(10.0427 -0.0474096 0)
(10.0554 -0.0498913 0)
(10.0671 -0.0509424 0)
(10.0781 -0.0511661 0)
(10.0883 -0.0509243 0)
(10.098 -0.0504181 0)
(10.1072 -0.0497563 0)
(10.1159 -0.0489967 0)
(10.1243 -0.0481737 0)
(10.1324 -0.047309 0)
(10.1402 -0.0464181 0)
(10.1477 -0.045513 0)
(10.155 -0.0446029 0)
(10.162 -0.0436954 0)
(10.0002 -0.00650098 0)
(10.0075 -0.0278271 0)
(10.0219 -0.0429463 0)
(10.0376 -0.0521362 0)
(10.053 -0.0569211 0)
(10.0669 -0.0590265 0)
(10.0795 -0.0596516 0)
(10.0908 -0.0595281 0)
(10.1013 -0.0590447 0)
(10.111 -0.0583875 0)
(10.1201 -0.0576405 0)
(10.1288 -0.0568401 0)
(10.1371 -0.0560055 0)
(10.1451 -0.0551491 0)
(10.1527 -0.0542813 0)
(10.1601 -0.053411 0)
(10.1672 -0.0525454 0)
(10.174 -0.051689 0)
(10.0001 -0.00779149 0)
(10.0101 -0.0352122 0)
(10.0286 -0.052284 0)
(10.0474 -0.0619403 0)
(10.0648 -0.0661743 0)
(10.0799 -0.0675354 0)
(10.0929 -0.0674981 0)
(10.1043 -0.0668945 0)
(10.1147 -0.0660974 0)
(10.1242 -0.065246 0)
(10.133 -0.0643815 0)
(10.1414 -0.0635109 0)
(10.1493 -0.0626344 0)
(10.1569 -0.0617547 0)
(10.1641 -0.0608774 0)
(10.171 -0.0600101 0)
(10.1776 -0.0591591 0)
(10.1839 -0.0583266 0)
(9.99959 -0.00880132 0)
(10.0133 -0.0438096 0)
(10.0366 -0.0621589 0)
(10.0587 -0.0717952 0)
(10.0782 -0.0749665 0)
(10.0941 -0.075273 0)
(10.1074 -0.0743905 0)
(10.1185 -0.0732006 0)
(10.1283 -0.0720195 0)
(10.137 -0.0709162 0)
(10.1449 -0.0698793 0)
(10.1521 -0.0688829 0)
(10.1588 -0.0679091 0)
(10.1651 -0.0669516 0)
(10.1709 -0.0660114 0)
(10.1763 -0.0650949 0)
(10.1815 -0.0642106 0)
(10.1863 -0.0633613 0)
(9.9962 -0.00210479 0)
(10.0172 -0.0551386 0)
(10.0466 -0.0726347 0)
(10.0737 -0.0815212 0)
(10.0958 -0.0832064 0)
(10.1123 -0.0821045 0)
(10.1243 -0.0800926 0)
(10.1329 -0.0780861 0)
(10.1391 -0.0763244 0)
(10.1436 -0.0747918 0)
(10.1468 -0.0734208 0)
(10.1489 -0.0721443 0)
(10.15 -0.0709226 0)
(10.1504 -0.06974 0)
(10.15 -0.0685918 0)
(10.149 -0.0674816 0)
(10.1475 -0.0664213 0)
(10.1454 -0.0654244 0)
(9.99374 -0.063103 0)
(10.0235 -0.0516164 0)
(10.0725 -0.0847203 0)
(10.107 -0.0937097 0)
(10.1256 -0.0921845 0)
(10.1294 -0.0879711 0)
(10.1213 -0.0833564 0)
(10.104 -0.0792619 0)
(10.0802 -0.0757996 0)
(10.0514 -0.0728299 0)
(10.0192 -0.0702005 0)
(9.98436 -0.067795 0)
(9.94775 -0.065535 0)
(9.90999 -0.0633836 0)
(9.87161 -0.0613256 0)
(9.83305 -0.0593593 0)
(9.79465 -0.0574982 0)
(9.75667 -0.0557755 0)
(9.85146 1.3681 0)
(10.1936 -0.41926 0)
(10.1391 -0.237192 0)
(10.034 -0.146389 0)
(9.86957 -0.10009 0)
(9.67301 -0.0726844 0)
(9.47269 -0.0551084 0)
(9.28393 -0.0437925 0)
(9.11271 -0.0366077 0)
(8.95955 -0.0320254 0)
(8.82277 -0.0290051 0)
(8.70022 -0.0268885 0)
(8.58987 -0.0252717 0)
(8.49001 -0.0239309 0)
(8.39928 -0.0227485 0)
(8.31655 -0.0216709 0)
(8.24089 -0.0206854 0)
(8.17151 -0.019849 0)
(0.0159012 -0.0747158 0)
(0.0669682 -0.0467086 0)
(0.119458 -0.0342066 2.21613e-20)
(0.139153 -0.00910862 0)
(0.125469 0.0122837 0)
(0.0898946 0.0241587 0)
(0.0417904 0.0295246 0)
(-0.0145259 0.0323572 0)
(-0.0784837 0.0350947 -1.29778e-20)
(-0.150491 0.0386211 0)
(-0.230499 0.0425528 0)
(-0.318129 0.0464955 0)
(-0.412586 0.0501434 0)
(-0.513069 0.0533967 0)
(-0.618626 0.0561727 0)
(-0.728308 0.058451 0)
(-0.841313 0.0602612 1.05916e-20)
(-0.956732 0.0615747 0)
(-1.07388 0.0624189 -4.89301e-21)
(-1.19206 0.062787 4.7564e-21)
(-1.31074 0.0628021 0)
(-1.42958 0.0625633 0)
(-1.54812 0.0620737 0)
(-1.66616 0.0614428 0)
(-1.78355 0.0607286 0)
(-1.90009 0.0599346 0)
(-2.01575 0.0591108 -4.41712e-21)
(-2.13041 0.0582736 0)
(-2.24401 0.0574304 4.4278e-21)
(-2.35646 0.0565858 0)
(-2.4677 0.0557284 -4.46485e-21)
(-2.57762 0.0548338 0)
(-2.68606 0.053862 0)
(-2.79288 0.0527448 4.55837e-21)
(-2.8977 0.0514359 0)
(-3.00037 0.0501905 0)
(-3.10074 0.0490799 9.38251e-21)
(-3.1984 0.0480562 0)
(-3.29311 0.047135 0)
(-3.38405 0.0468168 9.74697e-21)
(-3.47109 0.0486585 0)
(-3.55425 0.0554923 5.02754e-21)
(-3.63553 0.0723837 0)
(-3.72039 0.107531 -1.03662e-20)
(-3.82391 0.172203 0)
(-3.94207 0.0648445 0)
(-3.98815 0.0239207 0)
(-4.06119 0.028196 0)
(-4.13248 0.0334983 0)
(-4.20254 0.0327893 1.27647e-20)
(-4.26849 0.0303965 0)
(-4.32853 0.0269721 0)
(-4.38153 0.022824 0)
(-4.4267 0.0184644 0)
(-4.46375 0.0144723 0)
(-4.49206 0.0105069 0)
(-4.51084 0.00634219 1.25583e-20)
(-4.51966 0.00359483 0)
(-4.51963 0.00229422 -6.1734e-21)
(-4.51215 -0.00160622 -1.22034e-20)
(-4.4972 -0.00613582 0)
(-4.47426 -0.00861381 1.17738e-20)
(-4.44423 -0.00987667 0)
(-4.40753 -0.0116083 -1.11477e-20)
(-4.36345 -0.0133675 0)
(-4.31203 -0.0146193 1.03684e-20)
(-4.25376 -0.0152321 9.88652e-21)
(-4.18942 -0.0194245 -9.38235e-21)
(-4.11929 -0.0207472 0)
(-4.04227 -0.0209446 0)
(-3.96066 -0.0234396 7.53538e-21)
(-3.8741 -0.0242558 0)
(-3.78186 -0.0277543 0)
(-3.68427 -0.0360755 -1.04081e-20)
(-3.58213 -0.0470186 0)
(-3.47388 -0.060208 0)
(-3.35653 -0.0734938 0)
(-3.2452 -0.0270588 1.48306e-21)
(-3.15048 -0.0495449 0)
(-3.04358 -0.0654015 1.39685e-21)
(-2.93298 -0.0907972 -1.92283e-21)
(-2.81719 -0.144549 0)
(-2.67306 -0.107764 3.60519e-21)
(-2.58649 -0.037407 9.04015e-21)
(-2.47523 -0.0298901 5.58112e-21)
(-2.36145 -0.0634153 0)
(-2.25641 -0.0107629 0)
(-2.15957 -0.0171894 0)
(-2.06562 -0.0220598 0)
(-1.95202 -0.0638813 0)
(-1.83898 -0.0771024 2.67862e-20)
(-1.7271 -0.0303916 0)
(-1.63917 -0.0239421 0)
(-1.53763 -0.0246361 1.72839e-20)
(-1.4424 -0.00231088 0)
(-1.35553 -0.0203716 0)
(-1.27138 -0.0329727 -6.66822e-20)
(-1.1347 -0.106585 0)
(-1.04655 -0.0353703 0)
(-0.957941 -0.028956 0)
(-0.866839 -0.0222212 0)
(-0.786012 -0.0132986 0)
(-0.702419 -0.00219288 0)
(-0.597603 -0.073354 0)
(-0.513159 -0.0325339 -7.55149e-20)
(-0.42875 -0.0308504 0)
(-0.346067 -0.0301981 0)
(-0.265276 -0.0297842 0)
(-0.185919 -0.0295746 -1.03255e-19)
(-0.107689 -0.0294215 1.12265e-19)
(-0.0304571 -0.0292074 0)
(0.0462913 -0.0285897 -1.18647e-19)
(0.122092 -0.0277979 0)
(0.196771 -0.0270011 0)
(0.270264 -0.0262064 -1.11196e-19)
(0.342585 -0.0254362 0)
(0.413681 -0.0246878 0)
(0.483598 -0.023956 0)
(0.552264 -0.0231737 0)
(0.619754 -0.0225123 0)
(0.686082 -0.0219732 0)
(0.751309 -0.0214056 0)
(0.815321 -0.0207903 9.70521e-20)
(0.878246 -0.0201324 0)
(0.939993 -0.0196036 -9.43273e-20)
(1.00063 -0.0191248 0)
(1.06013 -0.0185914 0)
(1.11859 -0.0180598 9.08162e-20)
(1.17599 -0.0175535 0)
(1.23242 -0.0170937 0)
(1.28782 -0.0166626 0)
(1.34231 -0.0162326 -1.73052e-19)
(1.39573 -0.0157812 0)
(1.44814 -0.0153232 0)
(1.49942 -0.0148185 0)
(1.54932 -0.0142406 1.65467e-19)
(1.59784 -0.0136039 0)
(1.645 -0.0129746 -8.09066e-20)
(1.69088 -0.0123528 7.99915e-20)
(1.73559 -0.0117696 0)
(1.77924 -0.0112624 0)
(1.82185 -0.0107996 -1.54887e-19)
(1.86345 -0.0104074 0)
(1.90388 -0.0100579 0)
(1.9432 -0.00977134 0)
(1.98106 -0.00949161 -1.49239e-19)
(2.01712 -0.00922121 0)
(2.05129 -0.00896515 0)
(2.08297 -0.00864262 0)
(2.11208 -0.0083052 0)
(2.13808 -0.00787271 0)
(2.16089 -0.00737091 1.47435e-19)
(2.18044 -0.0067892 0)
(2.19669 -0.00614467 1.48802e-19)
(2.20992 -0.00543741 0)
(2.22053 -0.0047088 1.50595e-19)
(2.22902 -0.00401485 0)
(2.23594 -0.00337737 0)
(2.24182 -0.00282619 0)
(2.24706 -0.00237302 0)
(2.25218 -0.00201876 0)
(2.25741 -0.00174212 0)
(2.26295 -0.00155064 0)
(2.2686 -0.00144105 0)
(2.27465 -0.0013325 -3.0828e-19)
(2.28071 -0.00121759 0)
(2.28703 -0.00130364 0)
(2.29377 -0.0012341 3.0721e-19)
(2.30048 -0.00139528 0)
(2.30688 -0.00110719 0)
(2.31235 -0.000849755 3.05945e-19)
(2.31684 -0.000570571 0)
(2.32069 -0.000213123 -3.05005e-19)
(2.32234 0.000276665 0)
(2.31993 0.00104104 0)
(2.31241 0.00176754 0)
(2.29858 0.00308681 0)
(2.274 0.00558382 0)
(2.22822 0.0103667 0)
(2.13756 0.0238461 0)
(0.000911611 -0.149377 -8.36299e-20)
(0.0216406 -0.0973756 -1.09733e-20)
(0.00230693 -0.0249714 6.86603e-21)
(-0.0323706 0.0392123 0)
(-0.0792487 0.0916457 0)
(-0.138225 0.131163 4.56794e-21)
(-0.209584 0.160495 -8.42728e-21)
(-0.292396 0.184162 0)
(-0.384905 0.205022 1.07549e-20)
(-0.485369 0.223821 -2.4888e-23)
(-0.592265 0.240402 0)
(-0.704203 0.254426 5.81531e-21)
(-0.819837 0.265648 0)
(-0.938002 0.274056 0)
(-1.05764 0.279762 0)
(-1.17787 0.283024 0)
(-1.29798 0.28419 -9.5215e-21)
(-1.41747 0.283623 0)
(-1.53595 0.28167 0)
(-1.6532 0.278679 -9.09003e-21)
(-1.76906 0.274929 0)
(-1.88346 0.270671 -9.00455e-21)
(-1.99638 0.26608 -4.506e-21)
(-2.1078 0.261279 -9.03448e-21)
(-2.2177 0.256348 9.08056e-21)
(-2.3261 0.251358 4.56823e-21)
(-2.43299 0.246341 1.38417e-20)
(-2.53838 0.241307 0)
(-2.64225 0.236247 4.71909e-21)
(-2.7446 0.231161 -4.77936e-21)
(-2.84542 0.226031 -9.69112e-21)
(-2.94468 0.220837 4.91714e-21)
(-3.04233 0.215557 -4.99536e-21)
(-3.1384 0.210178 0)
(-3.23282 0.204709 -5.17073e-21)
(-3.32562 0.199161 0)
(-3.41672 0.193626 0)
(-3.50598 0.188118 5.49335e-21)
(-3.59334 0.182693 0)
(-3.6786 0.177532 5.76773e-21)
(-3.76134 0.172817 0)
(-3.84057 0.16873 0)
(-3.91472 0.165113 -6.31373e-21)
(-3.98156 0.16093 0)
(-4.03895 0.153267 0)
(-4.09328 0.133581 2.04395e-20)
(-4.15446 0.121089 0)
(-4.20495 0.109506 0)
(-4.24921 0.0992277 6.9028e-21)
(-4.28798 0.0886715 -1.38133e-20)
(-4.32188 0.0778445 1.57343e-23)
(-4.35089 0.066776 0)
(-4.37485 0.0554737 -2.76395e-20)
(-4.3937 0.0441006 -1.38037e-20)
(-4.40715 0.0325638 0)
(-4.41505 0.0208895 -1.36892e-20)
(-4.41725 0.00921638 1.35805e-20)
(-4.41313 -0.00266052 0)
(-4.40217 -0.0146709 1.32324e-20)
(-4.38455 -0.0263856 -3.91212e-20)
(-4.36019 -0.0379888 2.55372e-20)
(-4.32893 -0.0492509 0)
(-4.29055 -0.0601363 2.41274e-20)
(-4.24521 -0.0708291 -3.49539e-20)
(-4.19314 -0.0812645 -1.11305e-20)
(-4.13441 -0.0912908 2.14777e-20)
(-4.06925 -0.100614 1.0086e-20)
(-3.99809 -0.109264 1.92907e-20)
(-3.92139 -0.117201 -1.80313e-20)
(-3.83936 -0.124482 0)
(-3.75248 -0.131188 7.4813e-21)
(-3.66094 -0.137305 1.36977e-20)
(-3.56538 -0.142994 0)
(-3.46666 -0.147975 0)
(-3.36536 -0.152135 0)
(-3.26282 -0.155717 7.24558e-21)
(-3.15973 -0.157528 0)
(-3.05172 -0.153483 -3.81573e-21)
(-2.9381 -0.153216 -1.06798e-21)
(-2.82642 -0.154182 0)
(-2.71515 -0.154546 0)
(-2.60718 -0.155223 0)
(-2.50608 -0.148651 2.67248e-21)
(-2.3911 -0.145102 -1.11366e-20)
(-2.28116 -0.145704 0)
(-2.17449 -0.145262 1.17552e-20)
(-2.06651 -0.13771 0)
(-1.95517 -0.137049 0)
(-1.84423 -0.138492 -3.71378e-20)
(-1.74025 -0.138049 0)
(-1.6397 -0.134488 2.17498e-20)
(-1.54272 -0.125473 -2.32397e-20)
(-1.43889 -0.122695 0)
(-1.33852 -0.122518 0)
(-1.23688 -0.121229 0)
(-1.13366 -0.123055 0)
(-1.03137 -0.119782 4.17196e-20)
(-0.945241 -0.113433 0)
(-0.854407 -0.107958 -7.07248e-20)
(-0.759777 -0.10627 0)
(-0.666902 -0.105134 0)
(-0.572384 -0.104684 -4.47744e-20)
(-0.479331 -0.105323 0)
(-0.389175 -0.0998725 0)
(-0.306187 -0.0962293 0)
(-0.220166 -0.0937793 1.49592e-19)
(-0.134676 -0.0912276 0)
(-0.0499505 -0.0890371 -5.45719e-20)
(0.0340199 -0.0871792 -1.11057e-19)
(0.117086 -0.0854902 -5.64846e-20)
(0.199124 -0.0838165 5.72321e-20)
(0.280056 -0.0820971 -5.76264e-20)
(0.359914 -0.0802986 -5.86397e-20)
(0.438712 -0.0784759 -5.92977e-20)
(0.516431 -0.0766488 1.19595e-19)
(0.593091 -0.0748369 0)
(0.668665 -0.0730433 0)
(0.743183 -0.0712708 0)
(0.816594 -0.0695238 -1.24198e-19)
(0.888999 -0.067809 0)
(0.960335 -0.0661431 0)
(1.03067 -0.0645086 6.36651e-20)
(1.09991 -0.0628945 1.27913e-19)
(1.16816 -0.0613035 0)
(1.23541 -0.0597737 0)
(1.30167 -0.0582975 0)
(1.36701 -0.0568617 0)
(1.43139 -0.0554781 -1.31364e-19)
(1.4949 -0.0541348 0)
(1.55754 -0.0528544 0)
(1.61935 -0.0515974 0)
(1.68035 -0.0503567 0)
(1.74047 -0.0490879 0)
(1.79966 -0.0477529 0)
(1.85784 -0.0463335 -6.6626e-20)
(1.91491 -0.0448524 -1.35633e-22)
(1.97084 -0.0433707 0)
(2.02561 -0.0419446 0)
(2.0793 -0.0406077 1.21643e-22)
(2.13195 -0.0393603 1.32675e-19)
(2.1836 -0.0381912 -1.32282e-19)
(2.23431 -0.0370636 -1.31952e-19)
(2.28403 -0.0359344 -1.31555e-19)
(2.33275 -0.0347578 0)
(2.38037 -0.0335011 1.30813e-19)
(2.42683 -0.0321206 0)
(2.47196 -0.0305897 -1.30759e-19)
(2.51565 -0.0288935 0)
(2.55773 -0.0270203 2.63142e-19)
(2.59805 -0.0249974 -1.32714e-19)
(2.63644 -0.022841 0)
(2.67282 -0.020618 0)
(2.70703 -0.0183975 1.38732e-19)
(2.739 -0.0162355 1.41974e-19)
(2.76871 -0.0142237 1.45261e-19)
(2.79613 -0.0124281 1.48721e-19)
(2.82139 -0.0109056 3.04283e-19)
(2.84458 -0.00967215 0)
(2.86595 -0.00873253 0)
(2.88576 -0.00804948 3.22073e-19)
(2.90428 -0.00759759 0)
(2.92177 -0.00733216 1.64982e-19)
(2.93848 -0.00716291 3.32754e-19)
(2.95456 -0.00702607 0)
(2.97014 -0.00691185 0)
(2.98533 -0.00679986 1.68978e-19)
(3.00008 -0.00671059 1.69305e-19)
(3.01425 -0.00653235 0)
(3.02785 -0.00626243 -3.38882e-19)
(3.04088 -0.00583613 0)
(3.05325 -0.00525376 3.39546e-19)
(3.06456 -0.00456848 0)
(3.07418 -0.00369052 -1.69565e-19)
(3.08197 -0.00228731 3.3871e-19)
(3.08757 -0.000219514 0)
(3.08965 0.00260644 0)
(3.08627 0.00673129 -3.39513e-19)
(3.07457 0.0136746 0)
(3.05001 0.0269538 0)
(3.00701 0.0594511 -3.42572e-19)
(-0.0185397 -0.0841462 7.47773e-20)
(-0.0519901 -0.0259784 5.66087e-20)
(-0.109231 0.0711153 1.66304e-20)
(-0.173076 0.154408 -6.17636e-23)
(-0.243144 0.225012 1.1844e-20)
(-0.320059 0.283403 -1.098e-20)
(-0.404111 0.331207 2.06009e-20)
(-0.494815 0.370777 -9.67849e-21)
(-0.590939 0.403911 0)
(-0.691016 0.431457 -8.59687e-21)
(-0.793637 0.453658 0)
(-0.897642 0.470659 0)
(-1.00215 0.482721 -7.50492e-21)
(-1.10648 0.490256 0)
(-1.21021 0.493854 -1.40601e-20)
(-1.31305 0.494143 0)
(-1.41489 0.491793 -6.72623e-21)
(-1.51565 0.487383 6.63849e-21)
(-1.61534 0.481459 0)
(-1.71397 0.474465 4.02113e-23)
(-1.81158 0.466761 0)
(-1.90821 0.45861 6.59139e-21)
(-2.00388 0.450196 0)
(-2.09863 0.441657 -1.99614e-20)
(-2.19245 0.433063 6.6943e-21)
(-2.28537 0.424478 -6.8167e-21)
(-2.37739 0.415895 0)
(-2.46847 0.407323 -6.96754e-21)
(-2.55858 0.398742 7.07011e-21)
(-2.64766 0.390126 -1.4119e-23)
(-2.73567 0.381442 7.28852e-21)
(-2.82251 0.372654 -7.41807e-21)
(-2.90808 0.36373 -1.51084e-20)
(-2.99231 0.354618 0)
(-3.07501 0.345288 -7.8474e-21)
(-3.15608 0.335679 1.60139e-20)
(-3.23529 0.325782 1.63318e-20)
(-3.3124 0.315543 1.66476e-20)
(-3.38714 0.304892 1.69729e-20)
(-3.4592 0.293751 1.72886e-20)
(-3.5283 0.282011 1.75922e-20)
(-3.59413 0.269542 1.78712e-20)
(-3.65647 0.256181 0)
(-3.71533 0.2417 1.83114e-20)
(-3.77095 0.225843 0)
(-3.82423 0.208523 -1.80686e-23)
(-3.87503 0.191329 0)
(-3.92207 0.174377 0)
(-3.96491 0.157437 0)
(-4.00317 0.140111 0)
(-4.03671 0.122264 0)
(-4.06532 0.103887 0)
(-4.08879 0.0850107 1.91091e-20)
(-4.10687 0.0656949 -1.90901e-20)
(-4.1193 0.0459959 1.90392e-20)
(-4.12579 0.0259817 3.78106e-20)
(-4.12609 0.00572788 0)
(-4.12001 -0.0146636 -1.84758e-20)
(-4.10738 -0.0351165 -1.82009e-20)
(-4.0881 -0.0555259 0)
(-4.06212 -0.0757498 0)
(-4.02939 -0.095612 0)
(-3.98989 -0.114953 3.32437e-20)
(-3.94375 -0.133669 -1.59935e-20)
(-3.89105 -0.151592 -1.53757e-20)
(-3.83201 -0.1686 -1.48553e-20)
(-3.76681 -0.1846 -1.39695e-20)
(-3.69581 -0.199474 0)
(-3.61935 -0.213042 -1.23266e-20)
(-3.5378 -0.225347 -1.14024e-20)
(-3.45168 -0.23638 -1.05814e-20)
(-3.36138 -0.246241 -9.36653e-21)
(-3.26744 -0.254842 0)
(-3.17053 -0.262133 0)
(-3.07118 -0.267919 0)
(-2.96977 -0.27205 1.53005e-20)
(-2.86633 -0.274319 8.17194e-21)
(-2.7605 -0.274884 0)
(-2.65283 -0.274998 0)
(-2.54499 -0.274878 0)
(-2.43777 -0.273943 0)
(-2.33149 -0.271619 0)
(-2.22479 -0.267431 -3.50478e-21)
(-2.11631 -0.263699 9.91268e-21)
(-2.0088 -0.26037 -6.4987e-21)
(-1.90222 -0.256175 7.92707e-21)
(-1.79528 -0.251443 0)
(-1.68867 -0.24824 0)
(-1.58472 -0.245453 0)
(-1.48411 -0.240556 -2.64583e-20)
(-1.3847 -0.233457 0)
(-1.28447 -0.227141 -3.19354e-20)
(-1.18331 -0.223514 0)
(-1.08348 -0.220505 3.46729e-22)
(-0.984977 -0.217585 0)
(-0.888825 -0.214664 -4.26968e-20)
(-0.795745 -0.208937 4.51911e-20)
(-0.704427 -0.201153 -4.63433e-20)
(-0.611967 -0.19701 0)
(-0.519044 -0.193947 1.02553e-19)
(-0.426826 -0.190867 -5.397e-20)
(-0.335872 -0.188178 3.29783e-22)
(-0.247685 -0.184927 0)
(-0.161476 -0.17786 -6.18396e-20)
(-0.0758939 -0.173282 0)
(0.00932694 -0.169862 0)
(0.0942549 -0.166299 0)
(0.178626 -0.162838 0)
(0.262153 -0.159537 -6.8486e-20)
(0.344675 -0.156326 0)
(0.426129 -0.153125 -7.08219e-20)
(0.506506 -0.149896 0)
(0.585837 -0.146633 0)
(0.664116 -0.143365 -1.48661e-19)
(0.741355 -0.14011 1.50889e-19)
(0.817548 -0.136883 0)
(0.892716 -0.133695 0)
(0.966848 -0.130547 -2.35869e-19)
(1.0399 -0.127451 1.59142e-19)
(1.11198 -0.12441 0)
(1.18302 -0.121432 -1.62987e-19)
(1.25306 -0.118511 2.47291e-19)
(1.32204 -0.115644 -2.49792e-19)
(1.39006 -0.112838 8.42431e-20)
(1.45709 -0.110119 8.49532e-20)
(1.52315 -0.107486 1.71377e-19)
(1.58826 -0.104931 0)
(1.65242 -0.102457 -2.6139e-19)
(1.7157 -0.100067 0)
(1.77809 -0.0977675 0)
(1.83965 -0.0955247 1.77612e-19)
(1.90037 -0.0932986 -1.78575e-19)
(1.96027 -0.0910473 0)
(2.01935 -0.0887074 1.79845e-19)
(2.07757 -0.086249 0)
(2.13487 -0.0837147 0)
(2.19126 -0.081191 1.80463e-19)
(2.24674 -0.0787571 0)
(2.30132 -0.0764494 1.30213e-22)
(2.35505 -0.074267 0)
(2.40791 -0.0721883 1.78758e-19)
(2.45988 -0.0701563 -1.7824e-19)
(2.51097 -0.0681223 0)
(2.5611 -0.0660235 0)
(2.61021 -0.0638096 -1.76427e-19)
(2.65826 -0.0614325 1.76024e-19)
(2.70514 -0.0588634 0)
(2.75082 -0.0560759 0)
(2.79521 -0.0530663 3.52848e-19)
(2.83824 -0.0498567 1.77679e-19)
(2.87978 -0.0464813 0)
(2.91987 -0.0430037 1.82279e-19)
(2.95835 -0.0394939 -1.14151e-22)
(2.99516 -0.0360365 1.89996e-19)
(3.03024 -0.0327168 1.95135e-19)
(3.06351 -0.0296316 -1.43143e-22)
(3.09493 -0.0268528 0)
(3.12448 -0.024442 0)
(3.15224 -0.0224181 -2.21044e-19)
(3.17828 -0.0207788 0)
(3.20277 -0.0194901 0)
(3.22589 -0.0185287 4.78555e-19)
(3.24781 -0.0177767 -4.87857e-19)
(3.26873 -0.017162 0)
(3.2888 -0.0166375 0)
(3.30814 -0.0161637 -2.538e-19)
(3.32681 -0.0156587 0)
(3.3448 -0.0150912 0)
(3.36204 -0.0144161 2.58321e-19)
(3.37849 -0.0135928 0)
(3.39414 -0.0125445 0)
(3.40884 -0.0111841 7.81847e-19)
(3.4221 -0.00935511 -2.60968e-19)
(3.43346 -0.00693085 -5.22497e-19)
(3.44251 -0.00353043 1.10793e-22)
(3.44845 0.00124466 0)
(3.4497 0.00831235 0)
(3.44414 0.0195389 0)
(3.42912 0.0391617 0)
(3.4049 0.0782706 0)
(-0.0291868 0.0593289 6.54839e-20)
(-0.0942877 0.121924 0)
(-0.175731 0.224939 0)
(-0.258395 0.313847 -1.98115e-20)
(-0.342236 0.391434 0)
(-0.428022 0.457731 0)
(-0.515988 0.513147 7.7812e-21)
(-0.605819 0.558672 -1.47691e-20)
(-0.696802 0.595401 0)
(-0.788113 0.624186 0)
(-0.879085 0.645747 0)
(-0.969204 0.66072 1.24294e-20)
(-1.05822 0.66987 -5.96876e-21)
(-1.14605 0.674058 0)
(-1.23274 0.67415 -1.13516e-20)
(-1.31839 0.670976 0)
(-1.40315 0.66529 -1.11254e-20)
(-1.48715 0.657725 -2.19385e-20)
(-1.57052 0.648833 1.09705e-20)
(-1.65337 0.639043 0)
(-1.73579 0.628677 0)
(-1.81783 0.617972 -1.10019e-20)
(-1.89952 0.607101 0)
(-1.9809 0.596155 0)
(-2.06196 0.585194 -1.12716e-20)
(-2.14268 0.574238 0)
(-2.22307 0.563269 2.30436e-20)
(-2.30302 0.552279 0)
(-2.38251 0.541206 0)
(-2.46146 0.530004 -5.37196e-23)
(-2.53977 0.518623 0)
(-2.61734 0.507004 -1.25221e-20)
(-2.69404 0.49508 0)
(-2.76976 0.482785 -1.29344e-20)
(-2.84433 0.470064 0)
(-2.91762 0.456839 1.34358e-20)
(-2.98945 0.443055 0)
(-3.05963 0.428649 0)
(-3.128 0.413557 0)
(-3.19435 0.397719 0)
(-3.25852 0.381066 1.44871e-20)
(-3.32033 0.363535 -1.46978e-20)
(-3.37966 0.345041 0)
(-3.43636 0.325496 1.50181e-20)
(-3.49038 0.304824 1.51624e-20)
(-3.54168 0.283102 3.05543e-20)
(-3.59005 0.260643 1.54344e-20)
(-3.63503 0.237621 1.55585e-20)
(-3.67618 0.214029 0)
(-3.71311 0.189771 0)
(-3.74548 0.164776 -1.59213e-20)
(-3.77302 0.139021 0)
(-3.79548 0.112526 -1.58671e-20)
(-3.81254 0.0853534 0)
(-3.82395 0.0575732 4.7771e-20)
(-3.82945 0.0292732 1.5803e-20)
(-3.8288 0.000575482 0)
(-3.82183 -0.0283694 0)
(-3.80835 -0.0574115 -3.08787e-20)
(-3.78827 -0.0863576 0)
(-3.76152 -0.115023 2.97983e-20)
(-3.72806 -0.143204 0)
(-3.68794 -0.170688 0)
(-3.64118 -0.197281 -2.70962e-20)
(-3.588 -0.22276 0)
(-3.52853 -0.246925 2.4968e-20)
(-3.46309 -0.269586 0)
(-3.39199 -0.290558 2.24107e-20)
(-3.31554 -0.309702 0)
(-3.23417 -0.326939 0)
(-3.14834 -0.342221 0)
(-3.05857 -0.355672 -1.60633e-20)
(-2.96536 -0.367155 0)
(-2.86925 -0.376609 1.24345e-20)
(-2.77066 -0.384026 0)
(-2.67001 -0.389431 -8.76074e-21)
(-2.56759 -0.392879 -6.93744e-21)
(-2.46367 -0.394521 0)
(-2.3586 -0.394739 6.40796e-21)
(-2.25306 -0.39376 -1.17222e-21)