/*--------------------------------*- C++ -*----------------------------------*\
  =========                 |
  \\      /  F ield         | OpenFOAM: The Open Source CFD Toolbox
   \\    /   O peration     | Website:  https://openfoam.org
    \\  /    A nd           | Version:  7
     \\/     M anipulation  |
\*---------------------------------------------------------------------------*/
FoamFile
{
    version     2.0;
    format      ascii;
    class       volScalarField;
    location    "300";
    object      epsilon;
}
// * * * * * * * * * * * * * * * * * * * * * * * * * * * * * * * * * * * * * //

dimensions      [0 2 -3 0 0 0 0];

internalField   nonuniform List<scalar> 
48900
(
215.673
970.791
838.512
843.997
995.269
1222.85
1416.67
1547.27
1626.07
1672.94
1702.83
1723.95
1740.53
1754.57
1766.81
1777.24
1786.01
1790.09
20.5235
211.36
289.387
410.543
613.843
874.603
1130.71
1344.28
1508.84
1632.53
1725.55
1796.54
1850.78
1892.1
1923.11
1945.44
1959.9
1964.67
14.6943
38.5923
60.1448
79.4646
99.7926
124.225
153.183
185.397
219.372
254.058
288.892
323.635
358.153
392.269
425.712
458.071
488.739
516.762
14.6781
18.7102
25.1876
31.4886
37.4175
43.2134
49.1168
55.2
61.4165
67.6858
73.9554
80.2013
86.4266
92.6468
98.8758
105.111
111.312
117.41
14.7802
15.3107
17.2212
19.595
22.0015
24.3269
26.5698
28.7491
30.8719
32.9346
34.9292
36.85
38.6943
40.4618
42.1538
43.7689
45.3014
46.7506
14.8067
14.7473
15.0864
15.872
16.839
17.8606
18.8798
19.8755
20.8394
21.7671
22.6552
23.5012
24.3036
25.0613
25.7738
26.4397
27.0561
27.6209
14.8117
14.6514
14.5998
14.7067
14.9883
15.3641
15.7886
16.2332
16.6815
17.1239
17.5542
17.9685
18.3643
18.7399
19.0939
19.4249
19.7305
20.0063
14.8115
14.6425
14.4978
14.4076
14.3902
14.4381
14.5443
14.6851
14.8492
15.0259
15.2088
15.3929
15.5747
15.7517
15.922
16.0839
16.2354
16.3727
14.8111
14.6408
14.4823
14.3418
14.2275
14.1454
14.0967
14.0766
14.0811
14.1034
14.1397
14.1859
14.2382
14.2946
14.353
14.4118
14.4691
14.5226
14.8108
14.6393
14.4787
14.329
14.1914
14.0683
13.9616
13.8717
13.7984
13.7398
13.6942
13.66
13.6345
13.6166
13.6046
13.5972
13.5932
13.5921
14.8107
14.6382
14.4765
14.3248
14.1827
14.0498
13.9266
13.8133
13.7101
13.6169
13.5333
13.4586
13.3921
13.3329
13.2802
13.2331
13.1908
13.152
14.8106
14.6375
14.475
14.3224
14.1789
14.0439
13.9169
13.7975
13.6857
13.5813
13.484
13.3936
13.3098
13.2321
13.1602
13.0936
13.0316
12.9738
14.8105
14.637
14.4739
14.3207
14.1765
14.0407
13.9126
13.7917
13.6776
13.57
13.4685
13.373
13.2831
13.1985
13.1189
13.0441
12.9736
12.9071
14.8104
14.6366
14.4731
14.3193
14.1745
14.0381
13.9093
13.7876
13.6726
13.5639
13.4609
13.3635
13.2713
13.184
13.1012
13.0229
12.9485
12.878
14.8104
14.6363
14.4724
14.3182
14.1729
14.0359
13.9066
13.7844
13.6689
13.5595
13.4559
13.3577
13.2646
13.1763
13.0924
13.0128
12.937
12.865
14.8104
14.6361
14.4719
14.3173
14.1716
14.0342
13.9045
13.7819
13.6659
13.556
13.452
13.3533
13.2597
13.1708
13.0864
13.0062
12.9298
12.8572
14.8103
14.6359
14.4716
14.3167
14.1707
14.033
13.9029
13.7799
13.6636
13.5534
13.4489
13.3499
13.2559
13.1666
13.0818
13.0012
12.9245
12.8515
14.8103
14.6358
14.4714
14.3164
14.1702
14.0322
13.9019
13.7786
13.662
13.5515
13.4468
13.3474
13.2532
13.1636
13.0785
12.9976
12.9206
12.8474
14.8103
14.6358
14.4713
14.3162
14.17
14.0319
13.9014
13.778
13.6612
13.5506
13.4457
13.3462
13.2517
13.162
13.0767
12.9956
12.9185
12.8451
14.8104
14.6359
14.4715
14.3165
14.1703
14.0322
13.9018
13.7785
13.6617
13.551
13.4461
13.3465
13.252
13.1622
13.0769
12.9958
12.9186
12.8452
14.8104
14.636
14.4718
14.317
14.171
14.0331
13.9029
13.7797
13.663
13.5525
13.4477
13.3482
13.2538
13.1642
13.0789
12.9979
12.9209
12.8476
14.8104
14.6363
14.4723
14.3178
14.1721
14.0346
13.9047
13.7818
13.6655
13.5553
13.4509
13.352
13.2581
13.1692
13.0848
13.0048
12.9289
12.8568
14.8105
14.6367
14.4731
14.3191
14.1741
14.0372
13.9082
13.7865
13.672
13.5644
13.4634
13.3687
13.2802
13.1974
13.12
13.0477
12.9802
12.9172
14.8106
14.6373
14.4745
14.3215
14.1786
14.0463
13.9256
13.8167
13.7197
13.634
13.5587
13.493
13.4358
13.3861
13.3429
13.3056
13.2734
13.2457
14.8103
14.6381
14.4776
14.336
14.2213
14.14
14.0885
14.0644
14.0635
14.0777
14.1058
14.1434
14.1881
14.2379
14.2912
14.3471
14.4045
14.4633
14.8048
14.6393
14.532
14.5362
14.6445
14.84
15.0805
15.3464
15.6242
15.906
16.1879
16.4672
16.7424
17.0124
17.2763
17.5336
17.7841
18.0282
14.7567
14.7811
15.2355
16.095
17.083
18.0843
19.0597
20.0042
20.9243
21.827
22.7167
23.5945
24.4593
25.3091
26.1417
26.9552
27.7489
28.5233
14.6509
16.6903
20.4526
24.0959
27.3639
30.3895
33.3493
36.3755
39.5372
42.8464
46.281
49.8031
53.3732
56.957
60.5286
64.0706
67.572
71.029
25.2547
36.7587
52.7231
64.3277
75.4644
88.9403
105.77
126.182
149.557
174.873
201.083
227.331
253.015
277.772
301.421
323.901
345.22
365.424
660.187
256.982
290.809
361.731
482.928
657.298
860.007
1059.68
1233.63
1372.98
1478.81
1556.74
1613.18
1653.72
1682.7
1703.27
1717.68
1727.57
3.4231
2.01403
3.95867
5.58945
7.01018
8.35049
9.73174
11.1938
12.8029
14.6115
16.6608
18.973
21.577
24.4775
27.6799
31.1828
34.9636
39.0111
43.2899
47.7826
52.4563
57.2712
62.2164
67.258
72.3561
77.5043
82.6639
87.8016
92.8813
97.8634
102.71
107.39
111.889
116.225
120.468
124.654
128.776
132.761
136.308
138.947
139.716
137.021
127.682
120.143
124.958
128.291
137.816
694.264
669.32
668.447
662.69
152.906
150.972
721.966
822.496
814.07
810.684
805.208
751.743
757.796
743.122
158.114
766.355
794.106
778.573
694.727
719.366
740.35
761.572
782.963
804.354
825.667
846.824
867.774
888.502
908.882
928.878
948.521
967.729
986.412
1004.61
1022.2
1039.26
1055.65
1071.44
1086.54
1100.96
1114.79
1127.81
1139.72
1150.9
1161.63
1171.76
1181.27
1190.17
1198.63
1206.74
1214.57
1222.05
1229.06
1235.65
1241.91
1247.98
1253.89
1259.64
1265.28
1270.96
1276.58
1282.26
1287.58
1291.83
1294.59
1300.59
1308.87
1311.68
1319.55
1327.03
1328.62
1337.55
1339.87
1348.27
1349.83
1355.29
1362.55
1362.46
1365.36
1367.19
1367.54
1369.15
1369.43
1368.39
1364.83
1362.69
1357.64
1351.31
1343.69
1334.69
1324.4
1312.93
1300.2
1286.24
1270.9
1254.03
1235.81
1216.95
1199.63
1178.57
1104.06
228.544
219.954
215.023
220.023
210.028
202.573
195.024
187.1
178.108
167.571
155.116
141.376
130.094
124.574
119.282
115.533
121.354
127.096
201.916
225.022
213.503
229.977
232.84
232.383
228.744
242.827
226.81
215.975
230.117
271.554
280.664
279.366
10.8708
3.06478
3.13592
3.54975
4.11013
4.78804
5.58237
6.49816
7.54383
8.72857
10.0601
11.5433
13.1801
14.9683
16.9022
18.9744
21.1744
23.4884
25.9027
28.4028
30.9754
33.6064
36.284
38.9969
41.7335
44.4842
47.2379
49.9828
52.7078
55.4006
58.0522
60.6583
63.2233
65.7651
68.3179
70.9371
73.7256
76.8415
80.4681
84.8127
90.2268
97.2582
105.979
113.021
118.905
125.789
137.007
152.998
160.361
158.91
153.075
148.373
165.18
188.182
202.248
205.746
208.226
209.329
209.956
209.233
204.141
203.828
216.203
220.187
223.766
225.845
231.144
237.303
243.367
249.391
255.372
261.303
267.182
272.997
278.747
284.4
289.954
295.408
300.732
305.926
310.994
315.903
320.67
325.253
329.682
333.931
337.992
341.87
345.54
349.011
352.288
355.422
358.389
361.19
363.834
366.329
368.685
370.901
372.885
374.786
376.575
378.232
379.792
381.254
382.632
383.914
385.142
386.253
387.281
388.136
388.873
389.602
390.382
391.395
392.287
392.967
393.57
393.98
394.672
394.862
395.505
395.549
395.698
395.784
395.5
395.357
395.22
394.939
394.494
394.077
393.395
392.58
391.665
390.315
388.802
387.103
385.22
383.136
380.85
378.354
375.641
372.712
369.595
366.323
362.807
359.284
349.719
325.343
281.498
275.215
268.958
264.695
256.949
251.809
247.601
243.102
238.389
233.322
227.834
222.052
216.801
212.414
208.265
204.161
201.279
197.033
196.609
194.683
196.588
199.917
202.182
215.635
199.945
203.652
185.877
170.737
158.955
159.643
154.933
152.128
19.7023
5.3245
4.72341
4.86358
5.27676
5.86704
6.60761
7.49107
8.51535
9.67894
10.9785
12.4082
13.9601
15.6256
17.3948
19.2593
21.2093
23.2338
25.3215
27.4576
29.6327
31.8438
34.0848
36.3509
38.638
40.9423
43.261
45.5916
47.9327
50.284
52.6474
55.0279
57.435
59.886
62.4036
65.0205
67.7849
70.7716
74.0837
77.8183
82.0215
86.567
91.0634
95.0121
98.5122
102.049
106.179
110.732
114.902
118.361
121.655
125.757
130.93
136.287
141.437
145.912
150.26
154.543
158.675
162.533
166.462
171.194
176.193
180.666
185.113
189.786
194.719
199.694
204.648
209.586
214.509
219.408
224.277
229.108
233.892
238.618
243.279
247.867
252.372
256.786
261.102
265.31
269.405
273.378
277.224
280.936
284.508
287.937
291.219
294.346
297.33
300.18
302.891
305.464
307.902
310.206
312.376
314.421
316.21
317.946
319.59
321.126
322.558
323.888
325.122
326.262
327.312
328.267
329.124
329.883
330.566
331.211
331.827
332.418
332.951
333.396
333.749
334.049
334.312
334.506
334.62
334.607
334.458
334.277
334.03
333.746
333.399
332.96
332.429
331.815
331.065
330.201
329.191
328.026
326.732
325.306
323.743
322.04
320.189
318.187
316.028
313.714
311.252
308.682
306.067
303.378
299.806
293.415
285.189
280.876
276.673
272.242
267.672
263.588
259.478
255.137
250.666
246.087
241.412
236.687
231.909
226.827
221.589
216.267
210.959
205.413
200.37
194.857
191.819
191.288
188.427
184.144
178.278
171.962
163.173
153.166
145.654
139.53
132.91
128.392
29.0821
7.79275
6.53171
6.45153
6.76787
7.3144
8.03719
8.91534
9.93883
11.1002
12.3916
13.8036
15.3256
16.9465
18.655
20.4406
22.2932
24.2032
26.1632
28.1672
30.2097
32.2852
34.3912
36.5273
38.6925
40.8865
43.1093
45.3622
47.6481
49.9713
52.3381
54.7566
57.2374
59.795
62.445
65.2041
68.0879
71.1108
74.2868
77.6218
81.1035
84.6835
88.2763
91.8126
95.3256
98.9038
102.631
106.507
110.447
114.371
118.313
122.358
126.533
130.803
135.137
139.506
143.924
148.385
152.857
157.332
161.875
166.541
171.272
176.018
180.818
185.695
190.615
195.545
200.48
205.419
210.358
215.292
220.212
225.113
229.984
234.818
239.606
244.339
249.008
253.604
258.119
262.543
266.869
271.088
275.193
279.177
283.032
286.755
290.339
293.776
297.073
300.231
303.247
306.119
308.849
311.435
313.875
316.182
318.179
320.114
321.958
323.69
325.299
326.79
328.163
329.422
330.572
331.612
332.543
333.371
334.108
334.771
335.367
335.897
336.352
336.726
337.022
337.238
337.36
337.397
337.291
337.127
336.894
336.585
336.195
335.726
335.169
334.514
333.757
332.891
331.899
330.78
329.525
328.138
326.618
324.963
323.168
321.229
319.143
316.903
314.507
311.954
309.246
306.407
303.491
300.57
297.569
294.169
290.24
286.374
282.001
277.318
272.786
268.387
263.875
259.184
254.401
249.494
244.526
239.496
234.24
228.564
222.628
216.581
210.453
204.278
198.235
192.031
186.457
181.808
176.481
170.6
164.452
158.023
151.184
144.132
137.702
131.445
125.257
120.474
38.3098
10.3199
8.3804
8.08186
8.30345
8.80603
9.50736
10.3732
11.3862
12.5345
13.8079
15.1959
16.6874
18.2712
19.9364
21.6732
23.4726
25.3272
27.231
29.1794
31.1689
33.1974
35.2639
37.3686
39.512
41.6959
43.9232
46.1968
48.5214
50.9022
53.3456
55.859
58.4503
61.1299
63.9061
66.7867
69.7764
72.875
76.0785
79.3776
82.7615
86.217
89.733
93.3072
96.9481
100.669
104.478
108.371
112.337
116.363
120.453
124.621
128.874
133.21
137.625
142.111
146.666
151.286
155.968
160.712
165.529
170.426
175.398
180.438
185.542
190.701
195.905
201.143
206.41
211.704
217.017
222.345
227.679
233.012
238.334
243.637
248.912
254.148
259.335
264.464
269.523
274.504
279.394
284.186
288.869
293.433
297.871
302.174
306.335
310.344
314.201
317.909
321.46
324.85
328.08
331.144
334.042
336.788
339.158
341.436
343.613
345.657
347.558
349.311
350.92
352.386
353.715
354.907
355.968
356.902
357.719
358.43
359.041
359.556
359.973
360.295
360.525
360.612
360.548
360.405
360.172
359.85
359.432
358.915
358.292
357.56
356.714
355.748
354.657
353.432
352.066
350.555
348.896
347.088
345.128
343.013
340.737
338.297
335.689
332.909
329.954
326.822
323.514
320.042
316.431
312.735
308.991
305.14
301.005
296.513
291.56
286.333
281.142
275.945
270.612
265.102
259.442
253.682
247.838
241.9
235.802
229.418
222.843
216.177
209.494
202.846
196.289
189.723
183.34
177.206
171.011
164.762
158.461
152.065
145.681
139.408
133.472
127.662
122.024
117.301
46.9319
12.7697
10.1625
9.64598
9.77065
10.2244
10.8975
11.7427
12.7356
13.8613
15.1079
16.4646
17.921
19.4671
21.093
22.7902
24.5513
26.3702
28.2423
30.1642
32.1341
34.1511
36.2152
38.3278
40.4903
42.7055
44.9768
47.3077
49.7027
52.1665
54.7046
57.3225
60.0255
62.8201
65.7109
68.7017
71.7942
74.9872
78.2779
81.66
85.1282
88.6783
92.3082
96.0197
99.815
103.696
107.662
111.712
115.844
120.056
124.354
128.742
133.223
137.796
142.46
147.212
152.05
156.973
161.983
167.078
172.263
177.536
182.898
188.343
193.866
199.462
205.123
210.845
216.622
222.448
228.317
234.222
240.157
246.111
252.077
258.042
263.999
269.934
275.837
281.696
287.498
293.232
298.883
304.443
309.895
315.229
320.434
325.499
330.413
335.163
339.747
344.162
348.4
352.456
356.327
360.007
363.491
366.799
369.654
372.378
374.976
377.417
379.682
381.767
383.671
385.398
386.951
388.335
389.554
390.614
391.522
392.29
392.924
393.428
393.808
394.062
394.148
394.053
393.851
393.539
393.111
392.562
391.889
391.085
390.148
389.071
387.849
386.479
384.951
383.264
381.411
379.387
377.187
374.811
372.254
369.511
366.579
363.453
360.131
356.61
352.885
348.957
344.823
340.492
335.974
331.299
326.494
321.548
316.372
310.877
305.042
298.964
292.807
286.564
280.17
273.609
266.896
260.075
253.167
246.192
239.125
231.921
224.626
217.333
210.099
202.956
195.942
189.002
182.191
175.538
168.978
162.516
156.092
149.67
143.356
137.249
131.449
125.888
120.616
115.952
54.5982
15.042
11.8023
11.0724
11.1007
11.502
12.1418
12.9607
13.9281
15.0258
16.2409
17.5628
18.9819
20.4895
22.0773
23.7384
25.4668
27.2576
29.1074
31.0141
32.9765
34.9947
37.0695
39.2028
41.3966
43.654
45.9786
48.3735
50.8431
53.3915
56.0231
58.7419
61.5516
64.4566
67.4594
70.5624
73.7664
77.071
80.476
83.9786
87.5771
91.2699
95.0569
98.9383
102.915
106.987
111.154
115.416
119.775
124.231
128.786
133.445
138.211
143.082
148.06
153.144
158.334
163.629
169.031
174.539
180.154
185.876
191.704
197.636
203.668
209.795
216.014
222.32
228.707
235.17
241.702
248.296
254.944
261.637
268.365
275.115
281.879
288.642
295.392
302.113
308.792
315.416
321.966
328.43
334.792
341.033
347.142
353.103
358.902
364.525
369.964
375.214
380.261
385.102
389.727
394.131
398.309
402.278
405.716
408.971
412.068
414.974
417.669
420.142
422.393
424.425
426.241
427.846
429.245
430.446
431.455
432.283
432.939
433.427
433.756
433.881
433.794
433.559
433.178
432.65
431.97
431.135
430.139
428.983
427.655
426.158
424.48
422.62
420.568
418.325
415.881
413.234
410.38
407.314
404.03
400.528
396.802
392.849
388.665
384.248
379.596
374.707
369.584
364.226
358.649
352.865
346.894
340.734
334.349
327.69
320.753
313.585
306.273
298.834
291.247
283.514
275.651
267.703
259.697
251.671
243.633
235.576
227.54
219.582
211.756
204.091
196.598
189.264
182.096
175.147
168.336
161.685
155.149
148.692
142.388
136.317
130.551
125.091
119.98
115.338
61.0716
17.0597
13.2463
12.3152
12.25
12.5977
13.2015
13.991
14.9301
15.9978
17.18
18.4663
19.8479
21.3174
22.8681
24.4944
26.1917
27.9564
29.7861
31.6796
33.6365
35.6574
37.7435
39.8973
42.1209
44.4174
46.7905
49.2432
51.7794
54.4027
57.1169
59.9252
62.8303
65.836
68.9438
72.1556
75.4726
78.895
82.4239
86.0584
89.7987
93.645
97.5975
101.657
105.824
110.099
114.483
118.977
123.581
128.3
133.133
138.085
143.158
148.354
153.673
159.117
164.686
170.382
176.205
182.156
188.235
194.443
200.78
207.244
213.834
220.544
227.375
234.32
241.376
248.536
255.793
263.143
270.574
278.077
285.642
293.257
300.91
308.584
316.268
323.942
331.593
339.2
346.747
354.215
361.584
368.837
375.954
382.916
389.705
396.301
402.696
408.879
414.835
420.555
426.03
431.25
436.21
440.926
445.033
448.894
452.558
455.993
459.172
462.084
464.728
467.106
469.217
471.071
472.671
474.028
475.149
476.042
476.716
477.183
477.413
477.393
477.17
476.759
476.163
475.372
474.392
473.218
471.846
470.274
468.496
466.511
464.308
461.884
459.234
456.352
453.233
449.874
446.269
442.414
438.304
433.937
429.308
424.414
419.253
413.824
408.124
402.154
395.913
389.41
382.651
375.652
368.43
360.986
353.31
345.375
337.186
328.77
320.187
311.466
302.614
293.65
284.592
275.493
266.386
257.321
248.32
239.401
230.603
221.963
213.532
205.328
197.358
189.654
182.178
174.955
167.936
161.132
154.51
148.039
141.761
135.731
130.006
124.61
119.572
114.918
66.2063
18.7688
14.4597
13.3478
13.1943
13.4888
14.0555
14.8143
15.7241
16.7613
17.9108
19.1621
20.5071
21.9395
23.4536
25.0454
26.7114
28.4491
30.257
32.1346
34.0822
36.1008
38.1922
40.359
42.6033
44.9285
47.3382
49.8352
52.4234
55.1059
57.8862
60.7674
63.7516
66.8424
70.0414
73.3506
76.7713
80.3047
83.9527
87.7151
91.5937
95.589
99.7023
103.935
108.289
112.764
117.363
122.086
126.937
131.917
137.029
142.276
147.661
153.186
158.853
164.664
170.621
176.725
182.98
189.385
195.942
202.651
209.515
216.532
223.7
231.019
238.486
246.098
253.85
261.738
269.754
277.892
286.142
294.496
302.94
311.464
320.052
328.69
337.359
346.042
354.72
363.374
371.98
380.518
388.965
397.3
405.497
413.534
421.388
429.034
436.46
443.652
450.592
457.265
463.661
469.769
475.583
481.113
485.958
490.494
494.783
498.796
502.509
505.905
508.981
511.738
514.179
516.308
518.131
519.658
520.898
521.859
522.553
522.984
523.111
522.964
522.582
521.967
521.116
520.032
518.712
517.157
515.364
513.329
511.049
508.52
505.735
502.687
499.373
495.787
491.924
487.778
483.347
478.626
473.608
468.294
462.677
456.755
450.531
443.998
437.158
430.014
422.565
414.821
406.792
398.492
389.941
381.144
372.103
362.808
353.274
343.52
333.601
323.552
313.399
303.173
292.902
282.642
272.436
262.34
252.386
242.605
233.041
223.709
214.679
205.972
197.581
189.525
181.757
174.291
167.111
160.206
153.547
147.104
140.893
134.947
129.306
123.992
119.018
114.359
69.9314
20.1371
15.4238
14.1568
13.9229
14.1669
14.6966
15.4242
16.3043
17.3111
18.4285
19.6457
20.9551
22.351
23.8289
25.3857
27.0188
28.7269
30.5091
32.3655
34.297
36.305
38.3919
40.5602
42.8125
45.1522
47.5828
50.1074
52.7295
55.4524
58.2797
61.2141
64.2579
67.4146
70.6861
74.0753
77.5839
81.2133
84.9665
88.8439
92.848
96.98
101.242
105.637
110.165
114.83
119.633
124.577
129.664
134.898
140.281
145.816
151.507
157.356
163.368
169.544
175.887
182.399
189.084
195.944
202.98
210.194
217.588
225.162
232.916
240.849
248.96
257.246
265.703
274.327
283.111
292.049
301.132
310.349
319.688
329.135
338.679
348.298
357.976
367.692
377.426
387.154
396.851
406.495
416.055
425.508
434.826
443.982
452.945
461.686
470.191
478.44
486.411
494.085
501.451
508.494
515.207
521.601
527.236
532.494
537.453
542.087
546.368
550.282
553.822
556.985
559.778
562.204
564.268
565.981
567.347
568.381
569.09
569.472
569.509
569.24
568.68
567.836
566.711
565.302
563.611
561.642
559.392
556.856
554.029
550.913
547.496
543.777
539.748
535.404
530.738
525.749
520.432
514.781
508.793
502.464
495.794
488.777
481.418
473.712
465.664
457.274
448.548
439.496
430.127
420.461
410.52
400.312
389.857
379.151
368.222
357.086
345.799
334.404
322.936
311.439
299.95
288.533
277.233
266.12
255.217
244.571
234.273
224.308
214.734
205.533
196.732
188.335
180.323
172.688
165.413
158.476
151.846
145.49
139.405
133.602
128.103
122.917
118.041
113.418
72.2465
21.1497
16.1331
14.741
14.4372
14.6345
15.1283
15.8244
16.6745
17.6508
18.7362
19.9198
21.1941
22.5538
23.9953
25.516
27.1136
28.7884
30.5409
32.3704
34.2784
36.267
38.3386
40.4961
42.7424
45.0811
47.5158
50.0497
52.6867
55.4302
58.2839
61.2509
64.3338
67.5364
70.861
74.3121
77.8911
81.5989
85.4407
89.4178
93.5321
97.7865
102.184
106.727
111.418
116.261
121.257
126.411
131.726
137.204
142.85
148.667
154.659
160.828
167.18
173.718
180.444
187.363
194.478
201.791
209.305
217.023
224.946
233.077
241.415
249.96
258.713
267.67
276.828
286.184
295.732
305.465
315.373
325.446
335.673
346.039
356.53
367.124
377.805
388.55
399.334
410.135
420.921
431.669
442.346
452.923
463.368
473.648
483.73
493.581
503.176
512.497
521.514
530.209
538.56
546.557
554.187
561.462
567.917
573.924
579.575
584.849
589.721
594.168
598.188
601.776
604.934
607.668
609.981
611.886
613.386
614.493
615.218
615.558
615.507
615.1
614.347
613.259
611.835
610.081
607.997
605.585
602.843
599.773
596.367
592.626
588.539
584.106
579.317
574.17
568.657
562.776
556.522
549.89
542.875
535.48
527.701
519.535
510.984
502.051
492.737
483.047
472.989
462.575
451.821
440.746
429.379
417.731
405.832
393.691
381.343
368.808
356.144
343.401
330.621
317.858
305.162
292.602
280.206
268.103
256.324
244.908
233.894
223.293
213.16
203.509
194.353
185.692
177.508
169.785
162.496
155.611
149.092
142.899
137.012
131.423
126.134
121.138
116.41
111.908
73.2163
21.8085
16.5933
15.1087
14.7476
14.9032
15.3624
16.0272
16.8466
17.7918
18.845
19.9945
21.234
22.558
23.9625
25.4449
27.0041
28.6405
30.3548
32.1486
34.0238
35.9823
38.0272
40.1617
42.3887
44.7121
47.136
49.6639
52.3
55.0479
57.912
60.8958
64.0026
67.2371
70.6019
74.1003
77.7359
81.5107
85.4293
89.4944
93.7091
98.0765
102.6
107.284
112.133
117.148
122.336
127.698
133.239
138.963
144.874
150.975
157.272
163.767
170.465
177.372
184.489
191.821
199.372
207.146
215.145
223.372
231.829
240.52
249.444
258.601
267.993
277.616
287.469
297.547
307.845
318.357
329.072
339.981
351.073
362.33
373.74
385.28
396.931
408.67
420.471
432.307
444.148
455.964
467.721
479.387
490.924
502.298
513.471
524.4
535.061
545.427
555.468
565.159
574.476
583.407
591.935
600.075
607.343
614.097
620.438
626.349
631.803
636.782
641.276
645.283
648.805
651.843
654.405
656.495
658.125
659.304
660.037
660.329
660.186
659.625
658.665
657.313
655.575
653.452
650.95
648.069
644.812
641.177
637.159
632.758
627.966
622.781
617.193
611.202
604.798
597.979
590.743
583.083
574.999
566.487
557.55
548.184
538.395
528.186
517.561
506.53
495.1
483.292
471.121
458.611
445.797
432.694
419.341
405.756
391.985
378.048
364.01
349.932
335.857
321.818
307.923
294.305
280.941
267.914
255.262
243.048
231.335
220.151
209.539
199.514
190.088
181.256
172.994
165.28
158.076
151.34
145.028
139.086
133.482
128.187
123.186
118.451
113.967
109.697
72.9633
22.1247
16.8178
15.2756
14.8715
14.9909
15.4174
16.0517
16.8409
17.7548
18.7743
19.8883
21.0897
22.3738
23.7377
25.1796
26.6989
28.2957
29.971
31.7266
33.5648
35.4881
37.4997
39.6035
41.8027
44.1018
46.5051
49.0167
51.6413
54.3831
57.247
60.2373
63.3581
66.6145
70.0103
73.5499
77.2373
81.0765
85.0726
89.2291
93.5504
98.039
102.698
107.529
112.545
117.747
123.139
128.726
134.513
140.503
146.7
153.11
159.737
166.584
173.656
180.959
188.496
196.269
204.286
212.547
221.056
229.815
238.829
248.097
257.623
267.403
277.441
287.733
298.277
309.07
320.103
331.374
342.872
354.585
366.502
378.608
390.888
403.319
415.88
428.549
441.299
454.1
466.921
479.728
492.486
505.161
517.711
530.1
542.282
554.215
565.864
577.203
588.195
598.811
609.028
618.825
628.189
637.132
645.166
652.626
659.616
666.124
672.124
677.597
682.534
686.932
690.786
694.105
696.889
699.148
700.889
702.12
702.849
703.084
702.822
702.084
700.894
699.257
697.179
694.664
691.718
688.342
684.538
680.304
675.641
670.545
665.011
659.035
652.608
645.731
638.391
630.592
622.327
613.595
604.392
594.719
584.579
573.97
562.902
551.376
539.405
526.998
514.17
500.94
487.332
473.374
459.104
444.541
429.732
414.707
399.521
384.189
368.758
353.346
338.06
322.873
307.918
293.226
278.848
264.892
251.418
238.485
226.162
214.486
203.496
193.205
183.621
174.734
166.513
158.925
151.922
145.449
139.45
133.862
128.633
123.719
119.096
114.741
110.624
106.7
71.5913
22.1441
16.8348
15.2673
14.8338
14.9228
15.3178
15.9191
16.6746
17.5542
18.5394
19.6186
20.7843
22.0316
23.3577
24.7612
26.2416
27.7995
29.4363
31.154
32.9552
34.8432
36.8215
38.8942
41.0655
43.3402
45.7233
48.2196
50.8343
53.5729
56.4407
59.443
62.5847
65.8721
69.3101
72.9038
76.6587
80.5798
84.673
88.9426
93.3943
98.03
102.853
107.873
113.095
118.526
124.17
130.031
136.114
142.424
148.965
155.742
162.76
170.021
177.532
185.295
193.315
201.594
210.137
218.946
228.022
237.369
246.988
256.88
267.046
277.482
288.192
299.17
310.415
321.921
333.681
345.691
357.94
370.416
383.108
396
409.077
422.316
435.698
449.197
462.786
476.437
490.115
503.787
517.416
530.964
544.39
557.654
570.709
583.504
596.008
608.183
619.994
631.407
642.394
652.935
663.014
672.641
681.341
689.415
696.965
703.985
710.451
716.343
721.653
726.374
730.504
734.047
737.004
739.384
741.192
742.438
743.13
743.273
742.851
741.905
740.45
738.495
736.046
733.105
729.68
725.77
721.382
716.514
711.165
705.333
699.013
692.201
684.89
677.08
668.76
659.932
650.594
640.74
630.374
619.495
608.11
596.217
583.832
570.956
557.608
543.8
529.55
514.884
499.824
484.409
468.68
452.661
436.393
419.907
403.308
386.653
369.953
353.351
336.843
320.496
304.408
288.673
273.355
258.558
244.354
230.809
217.995
205.952
194.716
184.299
174.701
165.903
157.866
150.543
143.874
137.789
132.221
127.094
122.353
117.947
113.838
109.985
106.349
102.875
69.255
21.8688
16.6575
15.0955
14.6456
14.7123
15.0813
15.6545
16.3802
17.229
18.1829
19.2302
20.3636
21.5785
22.8722
24.2433
25.6918
27.2185
28.8251
30.5141
32.2886
34.1521
36.1089
38.1638
40.3216
42.5879
44.9685
47.4689
50.0957
52.8551
55.754
58.7981
61.9936
65.3485
68.8694
72.561
76.4304
80.4835
84.7251
89.163
93.8055
98.6578
103.727
109.018
114.537
120.289
126.28
132.514
138.998
145.736
152.732
159.989
167.515
175.308
183.375
191.718
200.339
209.239
218.423
227.889
237.638
247.671
257.986
268.585
279.464
290.619
302.051
313.754
325.722
337.951
350.431
363.158
376.119
389.303
402.696
416.285
430.054
443.98
458.044
472.222
486.488
500.813
515.163
529.506
543.803
558.017
572.105
586.028
599.737
613.182
626.322
639.121
651.54
663.545
675.102
686.191
696.793
706.916
716.112
724.642
732.605
739.996
746.794
752.98
758.543
763.476
767.778
771.449
774.494
776.913
778.716
779.908
780.501
780.489
779.851
778.643
776.876
774.551
771.681
768.265
764.312
759.823
754.803
749.25
743.165
736.546
729.388
721.691
713.444
704.648
695.298
685.39
674.928
663.906
652.329
640.2
627.526
614.312
600.574
586.319
571.566
556.336
540.647
524.532
508.012
491.117
473.903
456.444
438.788
420.976
403.071
385.083
367.097
349.211
331.49
314.02
296.886
280.202
264.042
248.518
233.713
219.697
206.545
194.299
182.99
172.621
163.184
154.648
146.956
140.055
133.864
128.314
123.326
118.815
114.709
110.941
107.459
104.213
101.154
98.2211
65.9862
21.3238
16.2977
14.7786
14.3327
14.3886
14.7395
15.2909
15.9933
16.8184
17.7487
18.7734
19.8854
21.0805
22.3561
23.7114
25.1465
26.6627
28.2621
29.9479
31.7237
33.5936
35.5626
37.6365
39.8213
42.1241
44.5504
47.1075
49.8032
52.6452
55.6398
58.7938
62.1168
65.6186
69.3082
73.1929
77.2807
81.5797
86.1001
90.8469
95.8274
101.049
106.517
112.241
118.225
124.475
130.997
137.796
144.878
152.245
159.901
167.848
176.091
184.628
193.462
202.594
212.022
221.745
231.764
242.074
252.672
263.556
274.72
286.162
297.875
309.852
322.089
334.577
347.309
360.277
373.469
386.878
400.492
414.297
428.282
442.431
456.729
471.157
485.697
500.326
515.022
529.757
544.501
559.224
573.888
588.458
602.892
617.151
631.192
644.964
658.423
671.53
684.248
696.541
708.373
719.722
730.567
740.91
750.351
759.102
767.254
774.803
781.73
788.018
793.654
798.631
802.948
806.601
809.593
811.927
813.605
814.636
815.028
814.755
813.812
812.258
810.092
807.32
803.951
799.985
795.429
790.284
784.558
778.247
771.352
763.873
755.805
747.147
737.891
728.041
717.587
706.533
694.879
682.627
669.778
656.341
642.326
627.743
612.61
596.937
580.745
564.047
546.869
529.277
511.328
493.017
474.44
455.594
436.535
417.32
398.034
378.721
359.47
340.371
321.511
302.996
284.916
267.399
250.531
234.435
219.199
204.9
191.611
179.371
168.204
158.094
149.024
140.951
133.816
127.548
122.05
117.226
112.982
109.22
105.86
102.826
100.058
97.4982
95.0924
92.7734
62.3376
20.5491
15.7847
14.3434
13.9242
13.9872
14.3366
14.8831
15.5803
16.4017
17.3313
18.3589
19.4786
20.6866
21.9808
23.3612
24.8289
26.385
28.0327
29.7756
31.6166
33.5611
35.6166
37.7908
40.0911
42.5267
45.1053
47.8353
50.727
53.7905
57.0359
60.4728
64.1105
67.96
72.03
76.3311
80.8735
85.6661
90.7191
96.0399
101.638
107.52
113.694
120.167
126.945
134.031
141.432
149.149
157.186
165.544
174.223
183.223
192.544
202.181
212.131
222.391
232.953
243.811
254.961
266.391
278.093
290.058
302.276
314.737
327.43
340.341
353.461
366.778
380.28
393.955
407.789
421.772
435.891
450.132
464.484
478.932
493.464
508.066
522.721
537.414
552.127
566.837
581.522
596.157
610.71
625.149
639.437
653.539
667.417
681.025
694.32
707.262
719.814
731.944
743.617
754.805
765.489
775.658
784.974
793.599
801.612
809.01
815.775
821.888
827.338
832.115
836.215
839.635
842.375
844.435
845.815
846.521
846.549
845.857
844.49
842.461
839.775
836.437
832.453
827.823
822.555
816.647
810.109
802.934
795.127
786.685
777.605
767.889
757.527
746.526
734.877
722.586
709.658
696.094
681.899
667.084
651.663
635.638
619.037
601.898
584.252
566.111
547.531
528.527
509.129
489.378
469.347
449.067
428.612
408.034
387.425
366.845
346.396
326.176
306.288
286.854
267.978
249.803
232.427
215.981
200.557
186.235
173.076
161.11
150.363
140.823
132.45
125.168
118.877
113.475
108.849
104.891
101.498
98.5709
96.0249
93.7844
91.7835
89.9603
88.2567
86.6016
58.7101
19.698
15.2241
13.8855
13.5176
13.6134
13.9893
14.5622
15.2891
16.1456
17.1178
18.1965
19.3759
20.6514
22.0233
23.494
25.0666
26.7439
28.53
30.4314
32.4543
34.6055
36.8929
39.3253
41.9114
44.6627
47.5903
50.705
54.0187
57.543
61.291
65.2749
69.5064
73.9991
78.7639
83.8124
89.1558
94.8041
100.768
107.056
113.675
120.633
127.934
135.585
143.588
151.944
160.654
169.716
179.131
188.891
198.993
209.429
220.193
231.273
242.659
254.341
266.303
278.532
291.015
303.733
316.671
329.813
343.141
356.639
370.289
384.071
397.973
411.976
426.064
440.222
454.434
468.689
482.974
497.274
511.582
525.886
540.179
554.451
568.695
582.903
597.065
611.169
625.199
639.142
652.977
666.679
680.219
693.569
706.696
719.562
732.129
744.359
756.217
767.673
778.697
789.26
799.338
808.908
817.698
825.823
833.35
840.271
846.567
852.222
857.221
861.552
865.21
868.188
870.483
872.093
873.015
873.248