/*--------------------------------*- C++ -*----------------------------------*\
  =========                 |
  \\      /  F ield         | OpenFOAM: The Open Source CFD Toolbox
   \\    /   O peration     | Website:  https://openfoam.org
    \\  /    A nd           | Version:  7
     \\/     M anipulation  |
\*---------------------------------------------------------------------------*/
FoamFile
{
    version     2.0;
    format      ascii;
    class       volScalarField;
    location    "300";
    object      k;
}
// * * * * * * * * * * * * * * * * * * * * * * * * * * * * * * * * * * * * * //

dimensions      [0 2 -2 0 0 0 0];

internalField   nonuniform List<scalar> 
48900
(
0.585485
0.308413
0.266384
0.268129
0.316181
0.38848
0.450053
0.491544
0.516576
0.531467
0.540956
0.547671
0.552937
0.557399
0.561284
0.56461
0.567557
0.570046
0.394163
0.535256
0.532863
0.556114
0.633923
0.735249
0.831217
0.911001
0.974867
1.02657
1.06959
1.10631
1.13811
1.1659
1.19022
1.21137
1.22953
1.24424
0.376428
0.406911
0.41497
0.415554
0.415193
0.417062
0.422407
0.430577
0.441244
0.45422
0.46944
0.486775
0.505995
0.526758
0.548631
0.571081
0.593461
0.614876
0.374643
0.382084
0.386177
0.386891
0.385805
0.383546
0.38097
0.378399
0.375993
0.373803
0.371978
0.370611
0.369793
0.369628
0.370028
0.371071
0.372725
0.374879
0.374397
0.374931
0.376328
0.37657
0.375858
0.374266
0.372167
0.369774
0.36722
0.36459
0.361945
0.359336
0.356805
0.354381
0.352099
0.349973
0.348011
0.346211
0.374429
0.372898
0.372347
0.371858
0.371025
0.369771
0.368181
0.366351
0.36436
0.362269
0.360121
0.357949
0.355782
0.353642
0.351547
0.349512
0.347549
0.345665
0.374436
0.372362
0.370805
0.369604
0.368452
0.367196
0.365801
0.364279
0.362661
0.360973
0.359243
0.35749
0.355732
0.353985
0.352262
0.350573
0.348926
0.347326
0.37443
0.37224
0.37029
0.368621
0.367131
0.365714
0.364307
0.362883
0.361436
0.359969
0.35849
0.357009
0.355533
0.354071
0.35263
0.351217
0.349834
0.348487
0.374425
0.372197
0.370126
0.368238
0.366518
0.364924
0.363417
0.361967
0.360556
0.359173
0.357814
0.356477
0.355164
0.353877
0.352617
0.351386
0.350186
0.349017
0.374421
0.37217
0.370058
0.368087
0.366251
0.364539
0.362933
0.361415
0.359972
0.35859
0.357261
0.355978
0.354738
0.353538
0.352376
0.35125
0.350159
0.3491
0.374419
0.372151
0.370017
0.368012
0.366127
0.364353
0.362683
0.361107
0.359617
0.358204
0.35686
0.355579
0.354354
0.353181
0.352056
0.350975
0.349936
0.348933
0.374417
0.372138
0.36999
0.367966
0.366058
0.364255
0.362552
0.360942
0.359418
0.357975
0.356606
0.355306
0.354069
0.352892
0.351769
0.350696
0.349669
0.348684
0.374416
0.37213
0.369972
0.367936
0.366014
0.364197
0.362477
0.360848
0.359304
0.35784
0.356451
0.355133
0.353881
0.35269
0.351556
0.350476
0.349445
0.348459
0.374415
0.372123
0.369957
0.367911
0.365978
0.364149
0.362416
0.360774
0.359216
0.357737
0.356333
0.354999
0.35373
0.352524
0.351376
0.350283
0.34924
0.348244
0.374414
0.372117
0.369945
0.367891
0.365949
0.36411
0.362368
0.360715
0.359147
0.357657
0.356241
0.354895
0.353614
0.352395
0.351234
0.350128
0.349073
0.348066
0.374413
0.372113
0.369936
0.367876
0.365926
0.36408
0.36233
0.360669
0.359092
0.357594
0.356169
0.354814
0.353524
0.352295
0.351124
0.350007
0.348943
0.347926
0.374413
0.37211
0.369929
0.367865
0.36591
0.364058
0.362302
0.360635
0.359051
0.357546
0.356114
0.354752
0.353454
0.352218
0.35104
0.349916
0.348844
0.34782
0.374413
0.372108
0.369926
0.367859
0.3659
0.364044
0.362283
0.360611
0.359023
0.357513
0.356076
0.354708
0.353405
0.352163
0.35098
0.349851
0.348773
0.347745
0.374413
0.372108
0.369925
0.367857
0.365897
0.364039
0.362276
0.360601
0.35901
0.357497
0.356056
0.354685
0.353379
0.352134
0.350947
0.349814
0.348734
0.347703
0.374413
0.372109
0.369927
0.367861
0.365902
0.364045
0.362283
0.360609
0.359017
0.357504
0.356063
0.354691
0.353384
0.352138
0.350951
0.349818
0.348737
0.347705
0.374414
0.372112
0.369933
0.367869
0.365914
0.364061
0.362301
0.36063
0.359041
0.35753
0.356092
0.354722
0.353417
0.352173
0.350987
0.349856
0.348777
0.347747
0.374415
0.372117
0.369942
0.367884
0.365935
0.364088
0.362334
0.360669
0.359086
0.357581
0.356148
0.354785
0.353486
0.352249
0.35107
0.349945
0.348873
0.347849
0.374416
0.372124
0.369957
0.367908
0.36597
0.364134
0.362394
0.360744
0.359178
0.357692
0.356279
0.354935
0.353655
0.352435
0.351271
0.35016
0.349097
0.348081
0.374419
0.372135
0.369981
0.367951
0.366041
0.364247
0.362559
0.360967
0.359459
0.358027
0.35666
0.355352
0.354097
0.352891
0.35173
0.350612
0.349534
0.348495
0.374421
0.372153
0.370036
0.368099
0.36634
0.364722
0.363203
0.361751
0.360343
0.358968
0.357621
0.356301
0.355006
0.353739
0.352501
0.351292
0.350114
0.348968
0.374403
0.372214
0.370411
0.368992
0.367743
0.366504
0.365206
0.363835
0.362405
0.360934
0.359444
0.35795
0.356465
0.354997
0.353555
0.352143
0.350763
0.34942
0.374341
0.372988
0.3729
0.372809
0.372248
0.371191
0.369769
0.368123
0.366366
0.364569
0.362775
0.361009
0.359285
0.357609
0.355987
0.354422
0.352916
0.351473
0.375443
0.379135
0.383348
0.384296
0.383588
0.381796
0.379744
0.377832
0.376198
0.37488
0.373851
0.373069
0.372505
0.372139
0.37196
0.371983
0.372184
0.372594
0.404618
0.415013
0.420712
0.41785
0.414715
0.415478
0.420689
0.430253
0.44279
0.45717
0.472535
0.488315
0.504169
0.519911
0.535452
0.550749
0.565787
0.580553
0.364331
0.560233
0.522894
0.547598
0.630463
0.743125
0.856887
0.954031
1.02873
1.08286
1.1211
1.14812
1.16758
1.18202
1.19313
1.20197
1.20922
1.2153
0.00297668
0.00798064
0.0156715
0.022108
0.027704
0.0329766
0.0384042
0.0441433
0.0504528
0.0575362
0.0655395
0.0745826
0.0847249
0.0960212
0.108476
0.122059
0.136721
0.152368
0.168912
0.186225
0.204205
0.222734
0.241689
0.260974
0.280478
0.300078
0.319672
0.339144
0.35838
0.37728
0.395768
0.4138
0.431371
0.448484
0.465035
0.480625
0.49448
0.505427
0.511626
0.510544
0.497461
0.475674
0.448298
0.452919
0.468089
0.489326
0.518451
0.495562
0.50581
0.515139
0.525274
0.578018
0.555669
0.578709
0.592418
0.601343
0.609804
0.613511
0.616902
0.618996
0.61417
0.619753
0.590253
0.584645
0.632863
0.609673
0.618813
0.630259
0.64196
0.653651
0.66523
0.676652
0.68788
0.698847
0.709594
0.720103
0.73032
0.740176
0.749816
0.759063
0.76799
0.776538
0.784755
0.79258
0.800046
0.807066
0.813762
0.82011
0.825947
0.831234
0.836199
0.840834
0.845147
0.84919
0.852864
0.856299
0.859485
0.862577
0.865475
0.868132
0.870516
0.872777
0.874885
0.876957
0.87888
0.880746
0.882619
0.884443
0.886231
0.887745
0.887958
0.89096
0.891383
0.893192
0.896249
0.898387
0.90036
0.900517
0.902763
0.90383
0.905725
0.90861
0.908405
0.909892
0.912346
0.912459
0.911679
0.911217
0.911168
0.9094
0.908934
0.906303
0.905297
0.90205
0.898609
0.894562
0.889968
0.88475
0.879008
0.872701
0.865785
0.858317
0.850166
0.841233
0.831192
0.818323
0.797787
0.781691
0.921845
0.885261
0.816887
0.933668
0.830804
0.819602
0.817637
0.819709
0.821938
0.828596
0.843178
0.87117
0.915469
0.943652
0.920173
0.902077
0.890768
0.881325
0.949955
1.01499
0.857818
0.669191
0.637011
0.629589
0.606802
0.684329
0.706375
0.707224
0.706942
0.757972
0.787159
0.782916
0.00945511
0.0435513
0.0628366
0.077609
0.0905724
0.102726
0.114671
0.126842
0.139541
0.152968
0.167256
0.182478
0.198653
0.215783
0.233842
0.252777
0.272524
0.293006
0.314136
0.335831
0.357999
0.380561
0.403434
0.426541
0.449805
0.473154
0.496519
0.519819
0.542964
0.565875
0.588474
0.610694
0.632501
0.653913
0.674952
0.695629
0.715851
0.735341
0.753655
0.770435
0.785975
0.802531
0.824953
0.85155
0.876116
0.900534
0.9202
0.932305
0.955586
0.985802
1.01923
1.05438
1.07913
1.09547
1.11188
1.13826
1.16629
1.19657
1.22891
1.26022
1.296
1.33354
1.35933
1.38735
1.41531
1.44812
1.47896
1.50714
1.53526
1.56324
1.591
1.61847
1.64555
1.6722
1.69837
1.72403
1.74907
1.77349
1.79725
1.82027
1.84249
1.86393
1.88449
1.90422
1.92298
1.94081
1.95766
1.97354
1.9884
2.00205
2.01475
2.0265
2.03732
2.04721
2.05619
2.06431
2.07161
2.07819
2.084
2.08905
2.09343
2.09715
2.10021
2.10272
2.10476
2.10635
2.10751
2.10839
2.10892
2.10919
2.10908
2.10858
2.10818
2.10745
2.10682
2.10633
2.10578
2.105
2.104
2.10322
2.10223
2.1014
2.10016
2.09867
2.0971
2.09516
2.09307
2.09034
2.08735
2.08418
2.08086
2.07691
2.07252
2.06766
2.06231
2.05644
2.05
2.04294
2.03526
2.02691
2.01781
2.00795
1.9971
1.98521
1.97191
1.95733
1.94462
1.94222
1.9524
1.9377
1.92691
1.90725
1.88916
1.87232
1.85478
1.83588
1.81309
1.78904
1.76404
1.73879
1.71504
1.69127
1.66423
1.63656
1.60857
1.5797
1.5346
1.5059
1.47851
1.39684
1.34334
1.29544
1.26263
1.24453
1.22299
1.18763
1.16064
1.13916
1.12643
1.10911
0.0171316
0.0715176
0.0971312
0.116297
0.133181
0.149179
0.165006
0.181115
0.197805
0.215275
0.233636
0.252935
0.273177
0.29433
0.316345
0.33915
0.362686
0.386868
0.41163
0.436893
0.462589
0.488648
0.515006
0.541615
0.568409
0.595352
0.622387
0.649466
0.676547
0.703581
0.730531
0.757359
0.784057
0.810656
0.837233
0.863893
0.890784
0.917993
0.945583
0.973649
1.00252
1.03276
1.06458
1.09698
1.12911
1.16087
1.192
1.22339
1.25705
1.29243
1.3284
1.36413
1.3984
1.43139
1.46516
1.50052
1.53675
1.57385
1.6114
1.64898
1.687
1.72489
1.76171
1.79821
1.83488
1.87252
1.90986
1.9465
1.98281
2.01888
2.05461
2.09003
2.12502
2.15953
2.1935
2.22686
2.25958
2.29155
2.32273
2.35306
2.38248
2.41096
2.4384
2.46479
2.49009
2.51422
2.53717
2.55891
2.57939
2.59858
2.61653
2.63327
2.64882
2.66318
2.67637
2.68845
2.69944
2.70941
2.71817
2.72607
2.73303
2.73907
2.74425
2.74859
2.75218
2.75509
2.75733
2.759
2.76012
2.76074
2.76068
2.76011
2.75938
2.75833
2.75705
2.75552
2.75372
2.75162
2.74927
2.7467
2.74382
2.74064
2.73709
2.73313
2.7288
2.72403
2.71887
2.71324
2.70718
2.70067
2.69362
2.68598
2.67771
2.66876
2.65917
2.64888
2.63787
2.62607
2.61347
2.60003
2.58568
2.57036
2.55401
2.53653
2.51784
2.49828
2.47926
2.46279
2.44603
2.42427
2.40086
2.3752
2.34938
2.32261
2.29436
2.26447
2.23275
2.19961
2.16514
2.12971
2.09393
2.05757
2.02049
1.9829
1.94471
1.90572
1.86348
1.82178
1.78382
1.73593
1.68372
1.63398
1.58846
1.54718
1.50762
1.46295
1.41873
1.3771
1.34387
1.31669
0.0252791
0.0975672
0.129106
0.152229
0.172363
0.191299
0.209919
0.22875
0.248137
0.26829
0.289338
0.311328
0.334259
0.3581
0.382793
0.408273
0.434473
0.461316
0.488737
0.516674
0.545068
0.573865
0.603024
0.632495
0.662241
0.692241
0.72246
0.752884
0.783486
0.814248
0.845172
0.876254
0.907507
0.938979
0.97074
1.00288
1.03553
1.06878
1.10272
1.13738
1.17277
1.20891
1.24576
1.28318
1.32104
1.35932
1.39802
1.43723
1.47702
1.51728
1.55786
1.5987
1.63971
1.68092
1.72245
1.76435
1.80661
1.8492
1.89205
1.93503
1.97819
2.02149
2.06485
2.1083
2.15186
2.19558
2.23918
2.28256
2.32574
2.36867
2.41134
2.45367
2.49559
2.53704
2.57796
2.61827
2.6579
2.69676
2.73481
2.77193
2.80809
2.8432
2.8772
2.91002
2.94161
2.97189
3.00085
3.02843
3.05459
3.07925
3.10248
3.12427
3.14463
3.16355
3.18106
3.19721
3.21199
3.22548
3.23737
3.24813
3.25773
3.2662
3.2735
3.27971
3.28487
3.28904
3.29233
3.29475
3.29635
3.29714
3.29697
3.29619
3.2949
3.2931
3.29079
3.28797
3.28466
3.28087
3.27662
3.27186
3.26658
3.26077
3.25441
3.2475
3.24001
3.23192
3.22323
3.21391
3.20395
3.19332
3.18194
3.16979
3.15683
3.14306
3.12846
3.11297
3.09658
3.07925
3.06096
3.04165
3.0213
2.99985
2.97725
2.95346
2.92843
2.90229
2.8756
2.84889
2.82101
2.79093
2.75909
2.72581
2.69216
2.65743
2.62118
2.58339
2.54401
2.50328
2.4612
2.41803
2.37394
2.3289
2.28335
2.23742
2.19109
2.1443
2.09673
2.0482
2
1.94929
1.89585
1.843
1.79145
1.74162
1.69318
1.64349
1.59361
1.54532
1.50287
1.4681
0.0332911
0.12155
0.158659
0.185507
0.208608
0.230099
0.251017
0.271979
0.293376
0.31546
0.338385
0.362226
0.386999
0.412687
0.439242
0.466612
0.494727
0.523528
0.552955
0.582955
0.613479
0.644489
0.675944
0.707824
0.740098
0.772754
0.805781
0.839159
0.872897
0.906992
0.941456
0.976304
1.01155
1.04726
1.08345
1.1202
1.15758
1.19564
1.23441
1.27391
1.31411
1.35496
1.39644
1.43851
1.48115
1.52434
1.56808
1.61231
1.65702
1.70213
1.74764
1.79357
1.8399
1.88661
1.93369
1.98111
2.02887
2.07695
2.12534
2.17399
2.22292
2.27211
2.32153
2.37115
2.42093
2.47079
2.52069
2.57055
2.6203
2.66991
2.71932
2.76846
2.81726
2.86565
2.91355
2.96088
3.00755
3.05347
3.09857
3.14273
3.1859
3.22797
3.26886
3.30848
3.34678
3.38366
3.41906
3.45294
3.48519
3.5158
3.54473
3.57202
3.59764
3.62155
3.64383
3.6644
3.68332
3.70068
3.71597
3.72985
3.74231
3.75335
3.76294
3.7711
3.77792
3.78343
3.78771
3.79081
3.79281
3.7936
3.79318
3.79193
3.78983
3.78695
3.78326
3.77881
3.7736
3.76768
3.76098
3.75354
3.74532
3.73635
3.72662
3.71612
3.70481
3.69269
3.67975
3.66594
3.65128
3.63568
3.61915
3.60162
3.58311
3.56358
3.54302
3.5214
3.49868
3.47484
3.44985
3.42371
3.39635
3.36777
3.33792
3.30678
3.27432
3.24061
3.20588
3.17029
3.13347
3.09502
3.05504
3.01377
2.97181
2.92877
2.88431
2.83833
2.79088
2.7421
2.69207
2.64106
2.58923
2.53662
2.48364
2.43051
2.37733
2.32404
2.27047
2.21621
2.16185
2.10657
2.05018
1.9939
1.93806
1.88303
1.82914
1.77532
1.72218
1.67074
1.62372
1.5835
0.0407722
0.143065
0.185222
0.215491
0.241302
0.265077
0.287991
0.310728
0.333731
0.357293
0.381606
0.406772
0.432844
0.459826
0.487693
0.516404
0.545913
0.576167
0.607118
0.638722
0.670942
0.703746
0.737111
0.771014
0.805441
0.840383
0.875841
0.911812
0.948296
0.985305
1.02285
1.06096
1.09964
1.13893
1.17885
1.21944
1.26073
1.30274
1.34549
1.38897
1.43317
1.47806
1.52362
1.56982
1.61664
1.66407
1.71208
1.76065
1.80975
1.85936
1.90946
1.96006
2.01116
2.06273
2.11478
2.16728
2.2202
2.27354
2.32731
2.38146
2.436
2.49091
2.54616
2.60171
2.65752
2.71354
2.76972
2.826
2.88231
2.93861
2.99481
3.05085
3.10667
3.16216
3.21725
3.27184
3.32584
3.37914
3.43164
3.48324
3.53383
3.5833
3.63155
3.67851
3.72403
3.76802
3.81041
3.85113
3.89008
3.92715
3.96235
3.99566
4.02703
4.05645
4.08392
4.10941
4.1329
4.15452
4.17357
4.19089
4.20648
4.22032
4.23237
4.24265
4.25121
4.25811
4.26342
4.26719
4.26953
4.2702
4.26944
4.2675
4.26438
4.26013
4.25476
4.24834
4.24085
4.2323
4.22273
4.2121
4.20046
4.1878
4.17413
4.15941
4.14366
4.12682
4.10889
4.08988
4.06971
4.0484
4.02591
4.00222
3.9773
3.95115
3.92374
3.89505
3.86507
3.83378
3.80116
3.76721
3.7319
3.69521
3.65711
3.61763
3.57675
3.53454
3.49113
3.44659
3.4008
3.35353
3.30485
3.25488
3.20399
3.15204
3.09879
3.04419
2.98827
2.93124
2.87323
2.81454
2.75536
2.69579
2.63615
2.57666
2.5175
2.45863
2.39986
2.34093
2.28214
2.22319
2.16395
2.10489
2.04612
1.98789
1.93067
1.87424
1.81915
1.76609
1.71671
1.67285
0.0474249
0.161783
0.208354
0.241657
0.269882
0.295686
0.320348
0.344612
0.368958
0.393718
0.419108
0.445272
0.472291
0.500195
0.528992
0.558663
0.589177
0.620498
0.652593
0.685429
0.718977
0.753213
0.788119
0.823687
0.859903
0.896766
0.934281
0.972441
1.01126
1.05075
1.09092
1.13178
1.17335
1.21564
1.25868
1.30247
1.34702
1.39235
1.43847
1.48535
1.53299
1.58138
1.6305
1.68033
1.73085
1.78203
1.83388
1.88635
1.93945
1.99315
2.04746
2.10235
2.15785
2.21393
2.27059
2.32782
2.38561
2.44393
2.50281
2.56221
2.62212
2.68252
2.74341
2.80473
2.86646
2.92855
2.99095
3.05361
3.11646
3.17945
3.24248
3.30552
3.36845
3.4312
3.49366
3.55573
3.61731
3.67828
3.73852
3.79789
3.85629
3.91361
3.96968
4.0244
4.07766
4.12927
4.17919
4.22727
4.27341
4.31752
4.35952
4.39939
4.43704
4.47246
4.5056
4.53645
4.56497
4.59126
4.61448
4.63556
4.65458
4.67147
4.68622
4.69881
4.70927
4.71767
4.72408
4.72856
4.73117
4.73173
4.73057
4.72781
4.72351
4.71767
4.71041
4.7017
4.69161
4.68012
4.66727
4.65309
4.63758
4.62078
4.60264
4.58321
4.56242
4.54031
4.51681
4.49195
4.46566
4.43797
4.40885
4.37827
4.34623
4.31272
4.2777
4.24118
4.20317
4.16364
4.12259
4.08001
4.03592
3.99029
3.94315
3.89447
3.84434
3.79281
3.74
3.68596
3.63067
3.57396
3.51589
3.45653
3.39615
3.33478
3.27231
3.20878
3.14424
3.07894
3.01304
2.9469
2.88073
2.81463
2.74888
2.6837
2.61929
2.55562
2.49255
2.42992
2.3678
2.30608
2.24468
2.18375
2.1233
2.06348
2.0047
1.94712
1.89124
1.83763
1.78729
1.74135
0.0530433
0.177502
0.227793
0.263686
0.293993
0.32156
0.34774
0.373319
0.398811
0.424566
0.45083
0.477772
0.5055
0.534079
0.563537
0.593882
0.625105
0.657188
0.69011
0.723853
0.758398
0.793727
0.829831
0.866707
0.904344
0.942746
0.98192
1.02187
1.06259
1.1041
1.14641
1.18952
1.23345
1.2782
1.32379
1.37021
1.41747
1.46556
1.5145
1.56427
1.61485
1.66625
1.71844
1.77141
1.82515
1.87965
1.93488
1.99084
2.04752
2.10491
2.163
2.22181
2.28132
2.34154
2.40245
2.46407
2.52637
2.58935
2.65302
2.71737
2.78237
2.84801
2.91429
2.98118
3.04864
3.11661
3.18509
3.254
3.32328
3.39289
3.46272
3.53273
3.6028
3.67285
3.74276
3.81243
3.88176
3.95057
4.01877
4.08619
4.15271
4.21816
4.28241
4.34529
4.40664
4.46634
4.52422
4.58014
4.63397
4.68555
4.73484
4.78173
4.82615
4.86802
4.90732
4.94396
4.97795
5.00932
5.03711
5.0623
5.08507
5.10534
5.12303
5.13813
5.1507
5.16077
5.1684
5.17365
5.17659
5.17712
5.17555
5.17194
5.16635
5.15884
5.1495
5.13834
5.12541
5.11073
5.09439
5.07634
5.05666
5.03533
5.01238
4.98779
4.96157
4.93373
4.90421
4.87302
4.84015
4.80557
4.76928
4.73129
4.69158
4.65013
4.60694
4.56202
4.51538
4.46699
4.41689
4.36509
4.31159
4.25641
4.19956
4.1411
4.08107
4.01958
3.95676
3.89265
3.82729
3.76055
3.69252
3.62325
3.55301
3.48193
3.41003
3.33743
3.26421
3.19068
3.11703
3.04364
2.97074
2.89846
2.82705
2.75671
2.68764
2.61987
2.55328
2.48775
2.42323
2.35966
2.29697
2.23515
2.17415
2.11405
2.05513
1.99767
1.94209
1.88887
1.83864
1.79198
0.0574989
0.190134
0.243433
0.281449
0.313483
0.342527
0.369991
0.396687
0.423147
0.449736
0.476715
0.504275
0.532543
0.561611
0.591529
0.62233
0.654023
0.686611
0.720088
0.754447
0.789681
0.82578
0.862741
0.900568
0.939252
0.978802
1.01922
1.06052
1.1027
1.14576
1.18972
1.23459
1.28035
1.32703
1.37462
1.42313
1.47254
1.52286
1.5741
1.62622
1.67924
1.73314
1.78791
1.84355
1.90004
1.95736
2.01552
2.07451
2.13432
2.19495
2.2564
2.31868
2.38179
2.44572
2.51048
2.57607
2.6425
2.70976
2.77786
2.84677
2.91652
2.98707
3.05842
3.13057
3.20346
3.27707
3.35137
3.4263
3.50181
3.57783
3.65429
3.73113
3.80823
3.88549
3.96282
4.04007
4.11714
4.19386
4.2701
4.34568
4.42046
4.49425
4.56687
4.63816
4.70792
4.776
4.84219
4.90631
4.96819
5.02766
5.08462
5.13896
5.19056
5.23931
5.28516
5.32802
5.36787
5.40471
5.43745
5.46714
5.49398
5.5179
5.53882
5.55671
5.57161
5.58354
5.59259
5.5988
5.60222
5.60282
5.60087
5.59643
5.58958
5.58039
5.56892
5.55522
5.53937
5.5214
5.50136
5.4793
5.45523
5.42917
5.40115
5.37118
5.33925
5.30537
5.26952
5.23169
5.19188
5.15008
5.10629
5.0605
5.01273
4.96297
4.91122
4.8575
4.80181
4.74417
4.68462
4.62316
4.55983
4.49467
4.4277
4.359
4.28865
4.21676
4.14349
4.06888
3.99302
3.91586
3.83752
3.75806
3.67779
3.59688
3.5155
3.43381
3.35194
3.27026
3.18898
3.10853
3.02912
2.95094
2.87421
2.79912
2.72587
2.65454
2.58509
2.51735
2.45123
2.38667
2.32358
2.26184
2.2013
2.14207
2.08422
2.02799
1.97371
1.92181
1.87265
1.82645
0.0607311
0.199693
0.2553
0.294971
0.328368
0.358594
0.387098
0.414709
0.441961
0.469229
0.496783
0.524822
0.553491
0.582897
0.613112
0.644184
0.676146
0.709013
0.742797
0.777502
0.813132
0.849687
0.88717
0.92559
0.964943
1.00524
1.04649
1.0887
1.13187
1.17601
1.22113
1.26723
1.31432
1.36239
1.41145
1.4615
1.51253
1.56454
1.61754
1.6715
1.72643
1.78232
1.83916
1.89695
1.95569
2.01536
2.07596
2.13749
2.19996
2.26336
2.32769
2.39297
2.45921
2.5264
2.59456
2.66369
2.7338
2.80488
2.87698
2.95005
3.02412
3.09917
3.1752
3.25221
3.33016
3.40903
3.48879
3.56939
3.65079
3.73294
3.81573
3.89911
3.98299
4.06725
4.15177
4.23644
4.32112
4.40563
4.48984
4.57354
4.65657
4.73873
4.81982
4.89963
4.97793
5.05455
5.12924
5.20181
5.27202
5.33965
5.40461
5.46671
5.52581
5.58179
5.63455
5.68399
5.73005
5.77272
5.81075
5.84528
5.87653
5.90441
5.92885
5.94981
5.9673
5.98133
5.99201
5.99936
6.00347
6.00433
6.00213
5.99698
5.98895
5.97812
5.96458
5.9484
5.92963
5.90834
5.88462
5.85844
5.82989
5.79901
5.76583
5.73033
5.69254
5.65247
5.61012
5.56548
5.51855
5.46933
5.41782
5.36404
5.30801
5.24971
5.18916
5.12639
5.06144
4.9943
4.92504
4.85368
4.78028
4.70488
4.62754
4.54835
4.46742
4.38487
4.30089
4.21555
4.12901
4.04125
3.95248
3.86277
3.77245
3.68176
3.59093
3.50022
3.40981
3.3201
3.23129
3.14384
3.05801
2.97419
2.89252
2.81311
2.73623
2.66195
2.59033
2.52104
2.45405
2.38927
2.32656
2.26572
2.20651
2.14902
2.0932
2.03917
1.9871
1.93746
1.89031
1.84567
0.0627471
0.206275
0.263525
0.304398
0.3388
0.369911
0.399205
0.427515
0.455378
0.483166
0.511148
0.539531
0.568466
0.59807
0.62843
0.659608
0.691652
0.724591
0.758451
0.793249
0.828996
0.865702
0.903378
0.942038
0.981684
1.02233
1.06399
1.10667
1.15038
1.19512
1.24091
1.28775
1.33563
1.38458
1.43458
1.48564
1.53776
1.59092
1.64515
1.70042
1.75675
1.81411
1.87251
1.93196
1.99244
2.05395
2.1165
2.18008
2.24471
2.31039
2.37713
2.44493
2.51382
2.58379
2.65487
2.72706
2.80038
2.87483
2.95044
3.0272
3.10512
3.1842
3.26445
3.34586
3.42841
3.51208
3.59685
3.68269
3.76954
3.85735
3.94606
4.0356
4.12585
4.21673
4.30811
4.39986
4.49185
4.58388
4.67581
4.76743
4.85854
4.94894
5.03838
5.12665
5.21348
5.29866
5.38192
5.46301
5.54167
5.61766
5.69077
5.76086
5.82771
5.89117
5.9511
6.00739
6.05994
6.10875
6.1524
6.19206
6.228
6.26013
6.28838
6.31266
6.333
6.34942
6.36197
6.37071
6.37571
6.37703
6.37478
6.36909
6.36005
6.34776
6.33227
6.3137
6.29211
6.26759
6.2402
6.20998
6.17701
6.1413
6.10292
6.06189
6.01821
5.97192
5.923
5.8715
5.81738
5.76068
5.70138
5.63953
5.57513
5.5082
5.43876
5.36685
5.29253
5.21579
5.13672
5.05535
4.97177
4.88603
4.79821
4.70844
4.61685
4.52359
4.42886
4.33276
4.23553
4.13721
4.03805
3.93814
3.83789
3.73755
3.63741
3.53769
3.43878
3.3413
3.24531
3.15142
3.05971
2.97056
2.88415
2.80072
2.72053
2.64367
2.57015
2.49983
2.43259
2.36828
2.3067
2.2476
2.19071
2.13586
2.08299
2.03209
1.98324
1.93666
1.89233
1.85018
0.0636034
0.210048
0.268321
0.309969
0.345033
0.376739
0.406569
0.435358
0.463636
0.49177
0.520024
0.548603
0.577662
0.607322
0.637676
0.668799
0.700746
0.733561
0.767279
0.801926
0.837525
0.874091
0.911642
0.950202
0.989777
1.03039
1.07206
1.11478
1.15858
1.20347
1.24946
1.29655
1.34475
1.39407
1.44451
1.49607
1.54876
1.60258
1.65753
1.71361
1.77082
1.82917
1.88864
1.94925
2.011
2.07388
2.13789
2.20305
2.26937
2.33686
2.40553
2.47539
2.54647
2.61875
2.69228
2.76706
2.84311
2.92045
2.99909
3.07905
3.16033
3.24294
3.32689
3.41219
3.49882
3.58677
3.67602
3.76655
3.85832
3.95128
4.04536
4.14051
4.23662
4.3336
4.43133
4.52968
4.62851
4.72763
4.82686
4.926
5.02485
5.12315
5.22067
5.31716
5.41232
5.50591
5.59762
5.68717
5.77426
5.85858
5.93992
6.01806
6.09277
6.16385
6.23112
6.29445
6.35369
6.40883
6.45834
6.50339
6.54426
6.5809
6.61318
6.64104
6.66447
6.6835
6.69818
6.70855
6.71469
6.71667
6.7146
6.7086
6.69875
6.68516
6.66794
6.64715
6.62291
6.59529
6.56439
6.53024
6.49293
6.45249
6.40901
6.3625
6.31301
6.26054
6.20512
6.14678
6.0855
6.02133
5.95426
5.88433
5.81158
5.73603
5.65771
5.57667
5.49296
5.40663
5.31775
5.22639
5.13264
5.0366
4.93835
4.83807
4.73589
4.632
4.52664
4.41991
4.31214
4.20342
4.09405
3.98411
3.87396
3.76405
3.65512
3.54702
3.44037
3.33535
3.23227
3.13175
3.03412
2.93968
2.84879
2.76166
2.67856
2.59958
2.52475
2.45398
2.38711
2.32395
2.26422
2.20762
2.1538
2.10246
2.05342
2.00656
1.96186
1.91932
1.87886
1.84022
0.0633915
0.2112
0.269951
0.311992
0.347402
0.379424
0.409541
0.438582
0.467066
0.495358
0.523717
0.552332
0.581359
0.61092
0.641111
0.672011
0.703683
0.736179
0.769542
0.803811
0.839023
0.875189
0.912336
0.950493
0.989674
1.02991
1.07121
1.11361
1.15711
1.20173
1.24749
1.2944
1.34246
1.3917
1.44212
1.49373
1.54654
1.60054
1.65576
1.71219
1.76983
1.8287
1.8888
1.95013
2.0127
2.07651
2.14157
2.20787
2.27547
2.34436
2.41455
2.48605
2.55889
2.63306
2.7086
2.78555
2.86389
2.94366
3.02487
3.10755
3.1917
3.27733
3.36447
3.45312
3.54328
3.63493
3.72807
3.82269
3.91875
4.01622
4.11503
4.21514
4.31645
4.41887
4.52229
4.62658
4.73161
4.83718
4.9431
5.04919
5.15522
5.26092
5.36604
5.4703
5.57339
5.67502
5.77487
5.87262
5.96792
6.06042
6.14986
6.23599
6.31851
6.3972
6.47184
6.54225
6.60828
6.66988
6.72538
6.77597
6.82196
6.86326
6.89976
6.93139
6.95812
6.97997
6.99697
7.00919
7.01669
7.01956
7.01791
7.01181
7.00137
6.98672
6.96796
6.94518
6.91849
6.88796
6.85371
6.8158
6.77432
6.72931
6.68087
6.629
6.5738
6.51527
6.45345
6.38836
6.32001
6.24846
6.17369
6.09578
6.01476
5.93065
5.84353
5.75342
5.66043
5.56459
5.46602
5.36477
5.261
5.15479
5.04628
4.93566
4.82309
4.7088
4.59305
4.47595
4.35782
4.23881
4.11954
4.00009
3.88098
3.76234
3.64464
3.52819
3.41343
3.30089
3.19091
3.0841
2.98085
2.88151
2.78651
2.69611
2.61056
2.52998
2.45442
2.3838
2.31793
2.25659
2.19943
2.14605
2.09607
2.04905
2.00467
1.96272
1.92303
1.88545
1.84977
1.81563
0.0622185
0.210193
0.268876
0.310929
0.346373
0.378433
0.408585
0.437646
0.466127
0.494377
0.522647
0.551123
0.579953
0.609254
0.639123
0.669639
0.700868
0.732866
0.76568
0.799351
0.833917
0.869413
0.905872
0.943328
0.981804
1.02133
1.06194
1.10365
1.14649
1.19048
1.23565
1.282
1.32956
1.37835
1.42839
1.47967
1.53223
1.58605
1.64118
1.69761
1.75535
1.81441
1.8748
1.93652
1.9996
2.06402
2.12981
2.19698
2.26554
2.3355
2.40689
2.4797
2.55398
2.62971
2.70692
2.78565
2.86591
2.9477
3.03108
3.11604
3.20261
3.29078
3.3806
3.47206
3.56517
3.65992
3.75633
3.85438
3.95404
4.05529
4.15807
4.26236
4.36807
4.47512
4.5834
4.6928
4.80318
4.91437
5.02618
5.13841
5.25082
5.36317
5.47517
5.58652
5.69691
5.80601
5.91346
6.01893
6.12202
6.22232
6.31955
6.41338
6.5035
6.58961
6.67148
6.74889
6.82165
6.88966
6.9512
7.00738
7.05853
7.10457
7.14538
7.18087
7.21102
7.23583
7.25532
7.26955
7.27858
7.28253
7.28147
7.27547
7.26467
7.24918
7.22909
7.20453
7.17558
7.14236
7.10498
7.0635
7.01802
6.9686
6.91536
6.85832
6.79756
6.73311
6.66502
6.59332
6.51803
6.43922
6.3569
6.27112
6.18196
6.08944
5.99364
5.89463
5.79252
5.68735
5.57927
5.46835
5.35475
5.23864
5.12012
4.99945
4.87677
4.75227
4.62631
4.49937
4.37155
4.24327
4.11468
3.98594
3.85762
3.73012
3.60384
3.47929
3.35685
3.2372
3.12069
3.00799
2.89954
2.79578
2.69717
2.604
2.51658
2.43501
2.35937
2.28957
2.2254
2.16658
2.1127
2.0633
2.01789
1.97595
1.93705
1.90081
1.86695
1.83518
1.80516
1.77645
0.0602018
0.20693
0.265134
0.306894
0.342103
0.373953
0.403904
0.432761
0.461023
0.489028
0.517017
0.545171
0.573632
0.602512
0.631902
0.661881
0.692513
0.723856
0.75596
0.788873
0.822638
0.857294
0.892883
0.929445
0.967009
1.00562
1.04531
1.0861
1.12804
1.17116
1.21548
1.26103
1.30783
1.35591
1.4053
1.45602
1.50807
1.56149
1.61629
1.67249
1.7301
1.78913
1.84959
1.91151
1.97489
2.03973
2.10606
2.17388
2.24322
2.31408
2.38647
2.4604
2.53591
2.61299
2.69166
2.77195
2.85387
2.93743
3.02266
3.10956
3.19816
3.28845
3.38047
3.47422
3.56972
3.66695
3.76595
3.8667
3.96918
4.07339
4.17928
4.28684
4.39599
4.50666
4.61878
4.73224
4.84691
4.96263
5.07925
5.19654
5.3143
5.43227
5.55015
5.66765
5.78442
5.90013
6.01438
6.1268
6.23699
6.3445
6.44894
6.54998
6.64725
6.74042
6.82918
6.9133
6.99254
7.06678
7.1342
7.19587
7.2521
7.30282
7.3479
7.38726
7.42084
7.44863
7.47066
7.48698
7.49766
7.50277
7.50245
7.49671
7.48571
7.46955
7.44834
7.42218
7.39119
7.35546
7.31513
7.27026
7.22097
7.16733
7.10947
7.04742
6.98127
6.91106
6.83685
6.75871
6.67664
6.59073
6.50101
6.40755
6.31043
6.20968
6.10541
5.99771
5.8867
5.77245
5.65513
5.53481
5.41166
5.28585
5.15753
5.02729
4.89507
4.76129
4.62607
4.48968
4.35242
4.21463
4.07676
3.93901
3.80193
3.66596
3.53158
3.39935
3.26973
3.14343
3.02088
2.90282
2.78975
2.68216
2.58057
2.48533
2.39676
2.31495
2.24001
2.17182
2.11011
2.05459
2.00476
1.96008
1.91998
1.88385
1.85113
1.82134
1.79406
1.76887
1.74531
1.72286
0.0573761
0.201814
0.259093
0.300253
0.334969
0.366372
0.395897
0.424334
0.452173
0.479741
0.507271
0.534935
0.562869
0.591177
0.619947
0.649254
0.67916
0.709723
0.740996
0.773029
0.805869
0.839563
0.874157
0.909698
0.946224
0.983786
1.02243
1.06218
1.1031
1.14522
1.18858
1.23322
1.27916
1.32646
1.37512
1.4252
1.4767
1.52966
1.5841
1.64004
1.69751
1.75651
1.81707
1.8792
1.94292
2.00822
2.07513
2.14366
2.21381
2.2856
2.35903
2.4341
2.51085
2.58926
2.66934
2.75111
2.83457
2.91972
3.00661
3.0952
3.18552
3.27757
3.37138
3.46695
3.56429
3.66339
3.76428
3.86695
3.9714
4.07764
4.18563
4.29537
4.40682
4.51993
4.63463
4.75084
4.86847
4.98738
5.10742
5.22842
5.35017
5.47242
5.59489
5.71728
5.83923
5.9604
6.08037
6.19875
6.31509
6.42893
6.53982
6.64735
6.75112
6.85077
6.94593
7.0363
7.12163
7.20176
7.27478
7.34168
7.40278
7.458
7.5072
7.55029
7.5872
7.6179
7.64242
7.66079
7.67309
7.67938
7.67979
7.67442
7.6633
7.64657
7.62432
7.59668
7.56374
7.52561
7.48245
7.43431
7.38134
7.32358
7.26122
7.19426
7.12282
7.04696
6.96675
6.88226
6.79352
6.70065
6.60365
6.50264
6.39771
6.2889
6.17633
6.0601
5.94033
5.81712
5.69084
5.56154
5.42932
5.29462
5.15738
5.01801
4.87659
4.73347
4.58899
4.44336
4.29703
4.15027
4.00361
3.85731
3.71196
3.56804
3.42608
3.28673
3.15048
3.01815
2.89022
2.76751
2.65058
2.53999
2.43632
2.33993
2.25115
2.1701
2.09684
2.03122
1.97292
1.92156
1.87659
1.83739
1.80332
1.77367
1.74781
1.72512
1.70508
1.68714
1.67074
1.65526
0.0542213
0.194955
0.250931
0.291211
0.325197
0.355939
0.38484
0.412672
0.439914
0.466885
0.493808
0.520849
0.548136
0.575769
0.60383
0.63239
0.66151
0.691248
0.721658
0.752792
0.784703
0.817443
0.851062
0.885617
0.921153
0.95773
0.995402
1.03422
1.07423
1.11548
1.15803
1.20192
1.2472
1.2939
1.34208
1.39177
1.44299
1.49578
1.55019
1.60622
1.6639
1.72325
1.78429
1.84703
1.91148
1.97766
2.04556
2.11518
2.18654
2.25963
2.33445
2.41099
2.48926
2.56922
2.6509
2.73428
2.81936
2.90611
2.99456
3.08468
3.17648
3.26995
3.3651
3.46192
3.56044
3.66063
3.76254
3.86614
3.97147
4.07853
4.18731
4.29782
4.41005
4.52397
4.63957
4.75678
4.87554
4.99576
5.11735
5.24016
5.364
5.48867
5.61391
5.73942
5.86486
5.98986
6.114
6.23686
6.35798
6.47686
6.59299
6.70591
6.81517
6.92036
7.02106
7.11693
7.20767
7.29306
7.37114
7.44278
7.5083
7.56761
7.62056
7.66704
7.70697
7.74031
7.76708
7.78731
7.80104
7.80834
7.80937
7.80428
7.793
7.77566
7.75237
7.72324
7.68836
7.64786
7.60189
7.55052
7.49388
7.43206
7.36522
7.2934
7.21674
7.13528
7.04913
6.95837
6.86303
6.76326
6.65905
6.55055
6.43795
6.32128
6.20066
6.07625
5.94832
5.81681
5.68208
5.54414
5.40327
5.25972
5.11369