/*--------------------------------*- C++ -*----------------------------------*\
  =========                 |
  \\      /  F ield         | OpenFOAM: The Open Source CFD Toolbox
   \\    /   O peration     | Website:  https://openfoam.org
    \\  /    A nd           | Version:  7
     \\/     M anipulation  |
\*---------------------------------------------------------------------------*/
FoamFile
{
    version     2.0;
    format      ascii;
    class       volScalarField;
    location    "300";
    object      nut;
}
// * * * * * * * * * * * * * * * * * * * * * * * * * * * * * * * * * * * * * //

dimensions      [0 2 -1 0 0 0 0];

internalField   nonuniform List<scalar> 
48900
(
0.000143047
8.81824e-06
7.61638e-06
7.66634e-06
9.04008e-06
1.11073e-05
1.28677e-05
1.4054e-05
1.47697e-05
1.51955e-05
1.54666e-05
1.56587e-05
1.58093e-05
1.59369e-05
1.60479e-05
1.61434e-05
1.62322e-05
1.63376e-05
0.00068131
0.000121995
8.83066e-05
6.77971e-05
5.89194e-05
5.56289e-05
5.49947e-05
5.55636e-05
5.66878e-05
5.80976e-05
5.96692e-05
6.13137e-05
6.29874e-05
6.46578e-05
6.62971e-05
6.7886e-05
6.94202e-05
7.09189e-05
0.000867875
0.000386136
0.000257679
0.000195579
0.000155469
0.000126018
0.000104832
9e-05
7.98766e-05
7.30874e-05
6.86541e-05
6.58935e-05
6.43377e-05
6.36621e-05
6.36336e-05
6.40775e-05
6.48558e-05
6.58456e-05
0.000860612
0.000702233
0.000532878
0.000427824
0.000358017
0.000306379
0.000265946
0.000233455
0.000207165
0.000185793
0.000168387
0.000154133
0.000142401
0.000132721
0.000124629
0.000117899
0.000112325
0.000107726
0.00085355
0.000826323
0.000740135
0.00065131
0.00057788
0.000518222
0.000469171
0.000428047
0.000393125
0.000363245
0.000337551
0.00031536
0.000296112
0.000279344
0.000264688
0.000251852
0.000240612
0.000230747
0.000852164
0.000848609
0.000827092
0.000784092
0.000735753
0.000688989
0.0006462
0.000607741
0.000573349
0.000542632
0.000515195
0.000490676
0.000468749
0.000449125
0.00043155
0.000415825
0.0004018
0.000389327
0.00085191
0.000851715
0.000847593
0.000835989
0.00081518
0.000789824
0.000762759
0.000735712
0.00070959
0.000684842
0.000661664
0.000640113
0.000620174
0.000601791
0.000584899
0.000569432
0.000555354
0.000542688
0.000851896
0.00085167
0.000851189
0.000848809
0.000842985
0.000833712
0.000821267
0.000807045
0.000791776
0.000776125
0.000760506
0.000745212
0.000730435
0.000716299
0.000702883
0.00069024
0.000678429
0.000667565
0.000851894
0.000851573
0.000851341
0.000850935
0.000849774
0.000847293
0.000843213
0.000837691
0.000830904
0.000823239
0.000814921
0.000806214
0.000797346
0.000788451
0.000779661
0.000771073
0.00076278
0.0007549
0.000851891
0.000851539
0.000851242
0.000850996
0.000850695
0.000850133
0.000849102
0.000847473
0.000845183
0.000842284
0.000838833
0.00083491
0.000830652
0.000826126
0.000821427
0.000816632
0.000811806
0.000806967
0.000851888
0.000851515
0.000851183
0.000850895
0.000850642
0.000850385
0.000850064
0.000849606
0.000848951
0.000848057
0.000846905
0.000845499
0.000843855
0.000842001
0.000839967
0.000837789
0.000835505
0.000833176
0.000851886
0.000851499
0.000851147
0.000850831
0.000850548
0.00085029
0.000850047
0.000849799
0.000849522
0.000849192
0.000848788
0.000848297
0.000847709
0.000847023
0.000846241
0.000845369
0.000844419
0.00084341
0.000851885
0.000851488
0.000851123
0.000850791
0.000850488
0.00085021
0.000849954
0.000849715
0.000849486
0.000849261
0.000849029
0.000848782
0.000848512
0.000848212
0.00084788
0.000847512
0.000847108
0.000846672
0.000851883
0.000851479
0.000851103
0.000850758
0.00085044
0.000850146
0.000849872
0.000849617
0.000849379
0.000849155
0.000848943
0.00084874
0.000848543
0.000848349
0.000848154
0.000847957
0.000847754
0.000847544
0.000851882
0.000851471
0.000851088
0.000850732
0.000850402
0.000850095
0.000849808
0.000849539
0.000849286
0.000849048
0.000848824
0.000848612
0.000848411
0.00084822
0.000848038
0.000847864
0.000847695
0.000847531
0.000851881
0.000851466
0.000851076
0.000850713
0.000850374
0.000850057
0.00084976
0.00084948
0.000849216
0.000848966
0.00084873
0.000848505
0.000848292
0.000848089
0.000847896
0.000847711
0.000847534
0.000847364
0.000851881
0.000851462
0.000851068
0.000850699
0.000850353
0.000850029
0.000849724
0.000849436
0.000849164
0.000848906
0.00084866
0.000848426
0.000848203
0.00084799
0.000847787
0.000847592
0.000847405
0.000847226
0.000851881
0.00085146
0.000851064
0.000850691
0.000850341
0.000850012
0.000849701
0.000849408
0.000849129
0.000848865
0.000848612
0.000848372
0.000848142
0.000847922
0.000847711
0.000847509
0.000847315
0.00084713
0.000851881
0.00085146
0.000851062
0.000850688
0.000850337
0.000850005
0.000849692
0.000849395
0.000849113
0.000848845
0.000848588
0.000848343
0.000848109
0.000847885
0.00084767
0.000847463
0.000847266
0.000847076
0.000851881
0.000851462
0.000851066
0.000850693
0.000850343
0.000850013
0.000849701
0.000849404
0.000849122
0.000848853
0.000848596
0.00084835
0.000848115
0.00084789
0.000847674
0.000847467
0.000847268
0.000847077
0.000851882
0.000851465
0.000851073
0.000850704
0.000850358
0.000850032
0.000849724
0.000849431
0.000849152
0.000848886
0.000848631
0.000848388
0.000848155
0.000847932
0.000847718
0.000847512
0.000847314
0.000847124
0.000851883
0.000851471
0.000851085
0.000850723
0.000850385
0.000850067
0.000849766
0.00084948
0.000849208
0.000848948
0.000848697
0.000848453
0.000848213
0.000847976
0.00084774
0.000847502
0.00084726
0.000847014
0.000851886
0.00085148
0.000851104
0.000850755
0.00085043
0.000850126
0.000849835
0.000849544
0.000849241
0.000848908
0.000848533
0.000848105
0.000847615
0.00084706
0.000846437
0.000845749
0.000844996
0.000844182
0.000851892
0.000851495
0.000851137
0.000850813
0.000850491
0.0008501
0.000849543
0.000848734
0.000847614
0.000846158
0.000844371
0.000842272
0.000839895
0.000837281
0.00083447
0.000831497
0.000828401
0.000825204
0.000851919
0.000851534
0.000851204
0.000850636
0.000849321
0.000846678
0.000842711
0.000837415
0.000830961
0.000823803
0.000816004
0.000807832
0.000799447
0.000790975
0.000782514
0.000774133
0.000765885
0.000757787
0.000852156
0.000851741
0.000849736
0.000842997
0.000831107
0.000814641
0.000795981
0.000776327
0.000756542
0.000737117
0.000718316
0.000700274
0.000683059
0.000666696
0.000651187
0.000636513
0.000622642
0.000609517
0.000854649
0.000847082
0.000821431
0.000777184
0.000730038
0.000685703
0.000645634
0.000609687
0.000577328
0.000548034
0.000521401
0.000497128
0.000474981
0.00045476
0.000436292
0.000419411
0.000403961
0.000389786
0.000865898
0.000775116
0.000646668
0.000551611
0.000483945
0.000431699
0.000389168
0.000353208
0.000322159
0.000295198
0.000271791
0.000251515
0.000233983
0.000218829
0.000205718
0.00019437
0.000184498
0.000175905
0.000583432
0.000421702
0.000302142
0.000244279
0.000205116
0.000174679
0.000150592
0.000132036
0.000117986
0.000107566
9.99388e-05
9.44026e-05
9.04166e-05
8.75814e-05
8.56069e-05
8.42826e-05
8.34549e-05
8.30098e-05
1.80953e-05
0.00010992
8.46177e-05
7.46072e-05
7.40763e-05
7.56142e-05
7.68401e-05
7.73022e-05
7.72076e-05
7.68642e-05
7.64924e-05
7.62084e-05
7.60559e-05
7.60382e-05
7.61399e-05
7.63392e-05
7.6614e-05
7.69435e-05
2.32964e-07
2.84611e-06
5.58359e-06
7.86995e-06
9.85364e-06
1.17204e-05
1.36399e-05
1.56673e-05
1.7894e-05
2.03906e-05
2.32035e-05
2.63865e-05
2.99415e-05
3.39008e-05
3.826e-05
4.3e-05
4.81165e-05
5.356e-05
5.93165e-05
6.53206e-05
7.15448e-05
7.7961e-05
8.44992e-05
9.11364e-05
9.7851e-05
0.000104565
0.00011126
0.000117898
0.000124452
0.000130903
0.00013725
0.000143503
0.000149678
0.000155753
0.000161563
0.000166782
0.000170886
0.000173177
0.000172832
0.000168834
0.000159409
0.000148619
0.000141659
0.000153669
0.00015781
0.000167974
0.000175533
3.18356e-05
3.4402e-05
3.57292e-05
3.74717e-05
0.000196652
0.000184069
4.1749e-05
3.8403e-05
3.99784e-05
4.1283e-05
4.20706e-05
4.55623e-05
4.55057e-05
4.56835e-05
0.00021863
4.09156e-05
3.87391e-05
4.6298e-05
4.81529e-05
4.79083e-05
4.82885e-05
4.8702e-05
4.91127e-05
4.95153e-05
4.99078e-05
5.02891e-05
5.06524e-05
5.10039e-05
5.13481e-05
5.16786e-05
5.19835e-05
5.22875e-05
5.25702e-05
5.28391e-05
5.30925e-05
5.3332e-05
5.35561e-05
5.37655e-05
5.39529e-05
5.41334e-05
5.42993e-05
5.4439e-05
5.45622e-05
5.46793e-05
5.47764e-05
5.48616e-05
5.49419e-05
5.50038e-05
5.50564e-05
5.50943e-05
5.51334e-05
5.51649e-05
5.51874e-05
5.51949e-05
5.52028e-05
5.51997e-05
5.51999e-05
5.51895e-05
5.5177e-05
5.51641e-05
5.51484e-05
5.51267e-05
5.50864e-05
5.49317e-05
5.51858e-05
5.49833e-05
5.48575e-05
5.51152e-05
5.5048e-05
5.49786e-05
5.49321e-05
5.48377e-05
5.48722e-05
5.47594e-05
5.50452e-05
5.47984e-05
5.46854e-05
5.49843e-05
5.48809e-05
5.47139e-05
5.46446e-05
5.45745e-05
5.43515e-05
5.43371e-05
5.41641e-05
5.41289e-05
5.3941e-05
5.37808e-05
5.35998e-05
5.34087e-05
5.31943e-05
5.29648e-05
5.27186e-05
5.24496e-05
5.21708e-05
5.18731e-05
5.15373e-05
5.10942e-05
5.02393e-05
4.86027e-05
4.98102e-05
0.000334648
0.000320666
0.000279306
0.000356582
0.000295776
0.000298446
0.000308515
0.000323212
0.000341379
0.000368748
0.0004125
0.000483141
0.000579793
0.000643339
0.000638863
0.000633903
0.00058846
0.000550028
0.000402234
0.00041204
0.000310191
0.00017525
0.000156848
0.000153516
0.000144873
0.00017357
0.000197994
0.000208427
0.000195462
0.000190411
0.000198692
0.000197469
7.40143e-07
5.56987e-05
0.000113319
0.00015271
0.00017963
0.000198356
0.000211999
0.000222834
0.000232302
0.000241269
0.000250269
0.000259617
0.000269472
0.000279967
0.000291169
0.000303075
0.000315676
0.000328958
0.000342872
0.000357374
0.000372382
0.000387854
0.000403712
0.000419889
0.000436321
0.00045294
0.000469704
0.000486549
0.000503396
0.0005202
0.000536882
0.00055335
0.000569493
0.000585177
0.000600141
0.000613938
0.000625561
0.000633322
0.000635279
0.000629873
0.000616203
0.000595992
0.000577936
0.000577436
0.000580989
0.000580228
0.000556243
0.000511297
0.000512486
0.00055039
0.000610777
0.000674348
0.000634507
0.000573941
0.000550138
0.000566751
0.000587923
0.000615588
0.000647374
0.000683136
0.000740495
0.000785218
0.000769181
0.000786726
0.000805655
0.00083568
0.000851675
0.000861487
0.000871659
0.000881885
0.000892088
0.000902213
0.000912131
0.000921859
0.00093132
0.000940591
0.000949576
0.000958253
0.000966673
0.000974757
0.000982431
0.000989797
0.000996717
0.00100336
0.00100948
0.0010152
0.00102049
0.00102535
0.00102979
0.0010336
0.00103702
0.0010399
0.00104233
0.00104432
0.00104584
0.00104694
0.00104762
0.00104799
0.00104825
0.00104799
0.00104739
0.00104651
0.00104526
0.00104374
0.001042
0.00104009
0.00103791
0.0010358
0.00103356
0.00103155
0.00102949
0.00102707
0.00102464
0.00102127
0.00101834
0.00101611
0.00101401
0.00101221
0.00100948
0.00100825
0.00100566
0.00100475
0.00100319
0.00100155
0.00100077
0.00099928
0.000997632
0.000995736
0.000994017
0.000992049
0.000990598
0.000988893
0.00098702
0.000985791
0.000984514
0.000983216
0.000981839
0.000980391
0.000978874
0.000977264
0.000975509
0.000973586
0.00097122
0.000968261
0.00096459
0.000959692
0.000973179
0.00104351
0.00121872
0.00122785
0.00124246
0.00123684
0.00125006
0.00125294
0.00125048
0.00124779
0.00124106
0.00123461
0.00122925
0.00122541
0.00122104
0.00121194
0.00119688
0.00118068
0.00115697
0.00113986
0.00107803
0.00104835
0.00100077
0.000878387
0.000803294
0.00070042
0.000717606
0.000684486
0.000724211
0.000743498
0.000762712
0.000731586
0.000737066
0.000727748
1.34067e-06
8.64549e-05
0.000179765
0.00025028
0.000302523
0.000341382
0.00037085
0.000394102
0.000413539
0.000430926
0.000447485
0.000464033
0.000481106
0.000498972
0.000517781
0.000537509
0.000558184
0.000579761
0.000602235
0.000625648
0.000649922
0.000674854
0.000700335
0.000726288
0.000752576
0.000779145
0.000805874
0.000832666
0.000859421
0.000886016
0.000912311
0.000938131
0.000963299
0.000987621
0.00101094
0.00103303
0.00105355
0.00107167
0.00108622
0.00109639
0.00110281
0.00110889
0.00112009
0.00113988
0.00116472
0.0011885
0.00120437
0.00121646
0.00123771
0.00127013
0.00130549
0.00133175
0.00134421
0.00135303
0.001366
0.00138878
0.00141451
0.00144251
0.00147278
0.00150568
0.00153871
0.00156415
0.00158533
0.00161083
0.0016369
0.00166277
0.00168593
0.00170761
0.00172901
0.00175025
0.00177116
0.00179183
0.00181211
0.00183198
0.0018514
0.00187036
0.00188884
0.00190669
0.00192398
0.00194061
0.00195655
0.00197182
0.00198631
0.00200005
0.00201299
0.00202507
0.00203632
0.00204669
0.00205616
0.0020647
0.00207231
0.00207899
0.00208478
0.00208969
0.00209375
0.00209699
0.00209948
0.00210127
0.00210292
0.0021036
0.00210349
0.00210268
0.00210127
0.00209927
0.00209676
0.00209386
0.00209054
0.00208698
0.00208323
0.00207938
0.00207499
0.0020701
0.00206516
0.00205992
0.00205471
0.00204969
0.00204485
0.0020399
0.00203481
0.00202984
0.00202489
0.00202028
0.00201595
0.0020112
0.00200632
0.00200102
0.00199552
0.00198987
0.00198416
0.00197829
0.00197244
0.00196638
0.00196029
0.00195414
0.0019478
0.00194122
0.00193442
0.00192728
0.00191986
0.00191212
0.001904
0.00189538
0.00188615
0.0018759
0.00186416
0.00185157
0.00184522
0.00186045
0.00188814
0.00188317
0.00187503
0.00186504
0.00185586
0.00184192
0.00182585
0.00180885
0.00178989
0.00176947
0.00174766
0.00172469
0.00170156
0.00167979
0.0016581
0.00163626
0.00161345
0.00159124
0.00155977
0.00153292
0.00149298
0.00141782
0.00135407
0.00130491
0.0012738
0.00125283
0.00125365
0.00125759
0.00124371
0.00122322
0.00122292
0.00121526
1.9776e-06
0.000109941
0.000229673
0.000323275
0.000395075
0.000450285
0.000493447
0.000528237
0.000557556
0.000583609
0.000608033
0.000631955
0.000656133
0.000681039
0.000706927
0.000733923
0.000762072
0.000791345
0.00082168
0.000852968
0.00088511
0.000918034
0.000951619
0.000985686
0.00102011
0.00105482
0.00108968
0.00112462
0.00115947
0.00119409
0.00122833
0.00126202
0.00129498
0.00132706
0.00135816
0.00138825
0.00141741
0.00144572
0.0014732
0.00149992
0.00152625
0.00155322
0.00158223
0.00161405
0.00164766
0.0016814
0.00171392
0.00174547
0.00177772
0.00181157
0.00184616
0.00187994
0.00191237
0.0019441
0.00197588
0.00200827
0.00204098
0.00207406
0.00210776
0.0021419
0.0021757
0.00220834
0.00224044
0.00227274
0.00230478
0.00233636
0.00236736
0.00239796
0.00242825
0.00245817
0.00248771
0.00251678
0.00254534
0.00257335
0.00260074
0.00262747
0.00265351
0.00267876
0.00270322
0.00272678
0.00274945
0.00277113
0.00279181
0.00281141
0.00282993
0.00284728
0.00286349
0.00287851
0.00289229
0.0029048
0.00291607
0.00292605
0.00293483
0.00294239
0.00294878
0.00295404
0.00295825
0.00296139
0.00296453
0.00296624
0.0029667
0.00296619
0.00296472
0.00296241
0.0029593
0.00295548
0.00295109
0.00294617
0.00294077
0.00293488
0.0029281
0.00292092
0.00291345
0.00290568
0.00289766
0.00288949
0.00288116
0.00287265
0.00286419
0.00285556
0.00284724
0.00283849
0.00282941
0.00281998
0.00281024
0.00280013
0.00278973
0.00277904
0.00276811
0.00275693
0.00274549
0.00273379
0.0027218
0.00270952
0.00269689
0.00268385
0.00267041
0.00265655
0.00264225
0.00262745
0.00261216
0.00259629
0.00257971
0.00256216
0.00254311
0.0025222
0.00250099
0.00248311
0.0024677
0.00244797
0.00242954
0.00241133
0.00239123
0.00236813
0.00234336
0.00231747
0.00228962
0.00226048
0.00222951
0.00219719
0.00216531
0.00213568
0.00210769
0.00208026
0.00205309
0.00202578
0.00199594
0.00196615
0.00193075
0.00188097
0.00183296
0.0017919
0.00175637
0.00172754
0.00170665
0.00168662
0.00165985
0.00163508
0.00162288
0.00161013
2.60368e-06
0.000128848
0.000270338
0.000383224
0.000471677
0.000541116
0.000596473
0.0006418
0.000680322
0.000714539
0.000746341
0.000777096
0.000807745
0.000838914
0.000870971
0.00090413
0.000938452
0.000973945
0.00101055
0.00104818
0.00108673
0.00112608
0.00116609
0.00120666
0.00124765
0.00128894
0.0013304
0.00137189
0.0014133
0.0014545
0.00149535
0.00153575
0.00157555
0.00161472
0.00165318
0.00169101
0.00172836
0.00176548
0.00180261
0.00184001
0.00187791
0.00191647
0.00195584
0.00199596
0.00203659
0.00207737
0.00211813
0.00215886
0.00219975
0.00224086
0.00228207
0.0023232
0.00236409
0.00240474
0.00244523
0.00248562
0.00252593
0.00256624
0.00260654
0.00264673
0.00268669
0.00272625
0.00276545
0.00280435
0.00284292
0.00288112
0.00291902
0.00295658
0.00299374
0.00303046
0.00306668
0.00310236
0.00313743
0.00317184
0.00320554
0.00323847
0.00327056
0.00330174
0.00333198
0.00336118
0.0033893
0.00341627
0.00344204
0.00346654
0.00348977
0.00351162
0.00353206
0.00355109
0.00356862
0.00358466
0.00359916
0.00361216
0.0036237
0.00363371
0.00364232
0.00364949
0.00365528
0.00365973
0.00366425
0.00366704
0.00366821
0.00366804
0.00366665
0.00366409
0.00366049
0.0036559
0.00365042
0.00364412
0.00363709
0.00362908
0.00362
0.00361043
0.0036003
0.00358968
0.00357853
0.00356693
0.00355483
0.00354282
0.00353087
0.00351831
0.00350518
0.00349154
0.00347741
0.00346282
0.00344776
0.00343225
0.00341632
0.00339994
0.00338317
0.00336596
0.00334835
0.0033303
0.00331182
0.00329289
0.00327347
0.00325358
0.00323318
0.00321228
0.00319086
0.00316891
0.00314641
0.00312332
0.00309956
0.00307501
0.00304934
0.00302219
0.00299358
0.00296443
0.00293575
0.00290754
0.00288104
0.0028549
0.00282721
0.00279764
0.00276681
0.00273499
0.002702
0.00266759
0.00263176
0.00259515
0.00255879
0.00252422
0.00249127
0.00245939
0.002428
0.00239643
0.00236362
0.00232993
0.00229421
0.0022538
0.00221208
0.00217165
0.00213331
0.00209859
0.00206696
0.00203474
0.00199991
0.00196788
0.00194454
0.00192387
3.18789e-06
0.000144254
0.000303829
0.000433265
0.000536339
0.000618512
0.000684971
0.000740007
0.000787072
0.000828874
0.0008675
0.00090447
0.000940898
0.000977529
0.00101484
0.00105311
0.00109248
0.00113299
0.0011746
0.00121723
0.0012608
0.00130518
0.00135026
0.0013959
0.00144198
0.00148838
0.00153499
0.00158169
0.00162836
0.00167491
0.00172126
0.00176732
0.00181304
0.00185839
0.00190337
0.00194804
0.0019925
0.0020369
0.00208144
0.00212628
0.00217152
0.00221724
0.00226336
0.00230984
0.00235654
0.00240339
0.00245035
0.0024974
0.00254453
0.00259169
0.00263878
0.00268572
0.00273247
0.00277901
0.00282539
0.00287162
0.00291769
0.00296362
0.00300941
0.00305499
0.00310031
0.00314536
0.0031901
0.00323453
0.00327864
0.00332244
0.00336589
0.00340897
0.00345161
0.00349379
0.00353543
0.00357648
0.00361691
0.00365661
0.00369556
0.00373367
0.00377088
0.00380713
0.00384232
0.0038764
0.00390929
0.00394093
0.00397124
0.00400018
0.00402766
0.00405361
0.00407801
0.0041008
0.00412194
0.00414134
0.00415904
0.00417499
0.00418922
0.00420174
0.00421258
0.00422172
0.00422919
0.00423503
0.00424095
0.00424493
0.00424695
0.00424729
0.00424609
0.00424344
0.00423944
0.00423416
0.00422768
0.00422008
0.00421148
0.00420138
0.00419013
0.00417813
0.0041653
0.00415167
0.00413722
0.00412208
0.00410666
0.0040911
0.00407471
0.00405744
0.00403944
0.00402074
0.00400139
0.00398138
0.00396078
0.00393953
0.00391769
0.00389527
0.00387225
0.00384867
0.00382453
0.00379982
0.00377453
0.00374867
0.00372224
0.00369523
0.00366767
0.00363955
0.00361089
0.0035817
0.00355196
0.00352167
0.00349078
0.00345927
0.003427
0.00339382
0.00335969
0.00332488
0.00329007
0.0032558
0.00322246
0.00318929
0.00315533
0.00312036
0.00308464
0.00304828
0.00301121
0.00297336
0.0029348
0.0028959
0.00285743
0.00282018
0.00278433
0.00274937
0.00271492
0.00268055
0.00264538
0.00260948
0.00257277
0.00253411
0.00249407
0.0024536
0.00241392
0.00237626
0.00234015
0.00230347
0.00226581
0.00222989
0.00219903
0.00217208
3.70746e-06
0.000156605
0.000331041
0.000474678
0.000590525
0.000684118
0.000760684
0.00082466
0.000879643
0.000928484
0.000973385
0.00101601
0.0010576
0.00109898
0.00114076
0.00118329
0.00122676
0.00127127
0.00131681
0.00136335
0.00141081
0.00145907
0.00150803
0.00155758
0.0016076
0.00165797
0.00170861
0.00175939
0.00181025
0.0018611
0.00191188
0.00196254
0.00201305
0.00206341
0.00211362
0.00216373
0.00221378
0.00226386
0.00231406
0.00236445
0.00241509
0.00246598
0.00251711
0.00256842
0.00261989
0.00267143
0.00272306
0.00277473
0.0028264
0.00287803
0.00292956
0.00298092
0.0030321
0.00308308
0.00313387
0.00318449
0.00323494
0.0032852
0.00333528
0.00338516
0.00343481
0.00348422
0.00353339
0.00358228
0.00363089
0.00367919
0.00372717
0.00377478
0.00382196
0.00386869
0.00391488
0.00396051
0.00400552
0.00404982
0.00409336
0.00413604
0.00417783
0.00421863
0.00425836
0.00429693
0.00433427
0.00437033
0.00440497
0.00443816
0.00446981
0.0044998
0.00452814
0.00455472
0.00457948
0.00460239
0.00462339
0.00464246
0.00465958
0.00467476
0.004688
0.0046993
0.00470866
0.00471607
0.00472351
0.00472883
0.00473189
0.00473292
0.00473213
0.00472958
0.00472534
0.00471952
0.00471219
0.00470341
0.00469325
0.00468128
0.00466803
0.00465365
0.00463816
0.00462149
0.00460377
0.00458546
0.0045667
0.00454682
0.00452586
0.00450389
0.00448098
0.00445717
0.00443249
0.00440699
0.00438065
0.00435354
0.00432563
0.00429697
0.00426754
0.00423739
0.00420652
0.00417495
0.00414269
0.00410975
0.00407613
0.00404188
0.00400703
0.00397158
0.00393556
0.00389901
0.00386195
0.00382436
0.00378631
0.00374773
0.00370867
0.00366908
0.00362902
0.00358863
0.00354826
0.00350816
0.0034685
0.003429
0.00338927
0.00334923
0.00330895
0.0032685
0.00322785
0.00318706
0.0031462
0.00310556
0.00306556
0.00302659
0.00298879
0.00295199
0.00291591
0.00288013
0.00284413
0.00280774
0.00277098
0.00273269
0.00269386
0.00265446
0.00261527
0.00257725
0.0025402
0.00250309
0.0024658
0.00242957
0.00239619
0.00236617
4.14632e-06
0.000166218
0.000352558
0.000508132
0.000635012
0.000738714
0.000824385
0.000896512
0.000958769
0.00101408
0.00106474
0.00111251
0.0011587
0.00120426
0.00124985
0.00129591
0.00134272
0.0013904
0.00143901
0.00148855
0.00153895
0.00159014
0.00164202
0.00169451
0.00174748
0.00180085
0.00185455
0.00190846
0.00196253
0.00201669
0.00207089
0.0021251
0.00217929
0.00223347
0.00228762
0.00234178
0.00239597
0.0024502
0.00250454
0.002559
0.00261358
0.00266831
0.00272315
0.00277808
0.00283306
0.0028881
0.00294313
0.00299815
0.00305313
0.00310802
0.0031628
0.00321743
0.0032719
0.00332618
0.00338029
0.00343424
0.00348801
0.00354162
0.00359507
0.00364835
0.00370144
0.00375434
0.00380705
0.00385954
0.00391181
0.0039638
0.00401553
0.00406693
0.00411798
0.00416862
0.00421879
0.00426846
0.00431755
0.00436599
0.00441371
0.00446066
0.00450674
0.00455184
0.00459594
0.00463887
0.00468059
0.00472099
0.00475999
0.00479747
0.00483336
0.00486756
0.0049
0.00493057
0.00495922
0.00498585
0.00501043
0.00503289
0.00505322
0.00507137
0.00508735
0.0051011
0.00511266
0.00512194
0.00513113
0.00513801
0.00514235
0.00514438
0.00514423
0.005142
0.00513778
0.00513165
0.00512366
0.00511388
0.00510236
0.0050888
0.00507371
0.00505712
0.00503907
0.0050195
0.00499894
0.00497752
0.0049548
0.00493071
0.00490537
0.00487876
0.00485101
0.00482211
0.00479214
0.00476111
0.00472907
0.00469604
0.00466203
0.00462707
0.00459119
0.00455441
0.00451676
0.00447828
0.00443898
0.00439889
0.00435805
0.00431649
0.00427426
0.00423139
0.00418794
0.00414394
0.00409945
0.00405451
0.00400913
0.00396339
0.00391732
0.00387096
0.00382443
0.00377783
0.00373137
0.00368515
0.0036393
0.00359374
0.00354839
0.00350325
0.00345835
0.00341379
0.00336957
0.00332581
0.00328256
0.00324008
0.0031986
0.00315828
0.0031192
0.00308136
0.00304454
0.00300851
0.00297293
0.00293693
0.00290092
0.00286428
0.00282753
0.00279044
0.00275336
0.00271703
0.00268142
0.00264612
0.00261107
0.00257687
0.00254453
0.00251492
4.49431e-06
0.000173351
0.000368841
0.000534113
0.000670322
0.000782813
0.000876552
0.000956001
0.00102485
0.00108605
0.00114195
0.00119435
0.00124465
0.00129386
0.00134272
0.00139173
0.00144123
0.00149141
0.00154237
0.00159414
0.00164671
0.00170002
0.001754
0.00180857
0.00186365
0.00191915
0.00197502
0.00203115
0.00208752
0.00214404
0.00220069
0.00225744
0.00231424
0.00237111
0.00242803
0.002485
0.00254202
0.0025991
0.00265627
0.00271349
0.0027708
0.00282816
0.00288555
0.00294299
0.00300042
0.00305784
0.00311522
0.00317254
0.00322979
0.00328694
0.00334398
0.00340089
0.00345766
0.00351428
0.00357076
0.00362711
0.00368333
0.00373942
0.00379541
0.00385126
0.00390701
0.00396263
0.00401813
0.0040735
0.00412871
0.00418375
0.0042386
0.00429323
0.00434759
0.00440166
0.00445535
0.00450865
0.00456148
0.00461377
0.00466545
0.00471643
0.00476664
0.00481599
0.00486436
0.00491167
0.00495782
0.00500268
0.00504616
0.00508813
0.0051285
0.00516716
0.00520401
0.00523891
0.00527178
0.00530253
0.00533108
0.00535736
0.0053813
0.00540285
0.00542198
0.00543864
0.00545282
0.00546438
0.00547562
0.00548441
0.00549038
0.00549372
0.00549457
0.005493
0.00548911
0.00548296
0.00547462
0.00546416
0.00545158
0.00543674
0.00542002
0.00540147
0.0053811
0.00535899
0.00533569
0.00531097
0.00528455
0.00525652
0.00522696
0.00519592
0.00516347
0.00512964
0.0050945
0.00505808
0.00502042
0.00498156
0.00494153
0.00490037
0.0048581
0.00481477
0.00477041
0.00472506
0.00467877
0.00463159
0.00458355
0.00453471
0.00448513
0.00443485
0.00438397
0.00433251
0.00428057
0.0042282
0.00417546
0.00412244
0.00406922
0.00401588
0.00396255
0.00390934
0.0038564
0.00380382
0.00375173
0.00370014
0.00364912
0.00359875
0.0035491
0.00350028
0.00345234
0.00340541
0.00335956
0.00331503
0.00327197
0.00323046
0.00319042
0.00315212
0.00311504
0.00307901
0.00304404
0.00300928
0.00297522
0.00294139
0.00290772
0.00287401
0.00284028
0.00280727
0.00277485
0.00274289
0.00271139
0.00268082
0.00265182
0.00262536
4.74671e-06
0.000178225
0.000380321
0.00055314
0.000697002
0.000816911
0.000917628
0.00100352
0.00107822
0.00114469
0.00120528
0.00126182
0.00131575
0.00136814
0.00141977
0.00147121
0.00152285
0.00157493
0.00162762
0.00168098
0.00173504
0.00178975
0.00184509
0.00190099
0.00195738
0.00201421
0.0020714
0.00212891
0.00218667
0.00224463
0.00230277
0.00236105
0.00241944
0.00247794
0.00253653
0.00259517
0.00265387
0.00271262
0.00277142
0.00283026
0.00288913
0.00294802
0.00300691
0.00306578
0.00312463
0.00318341
0.00324213
0.00330076
0.00335932
0.00341778
0.00347613
0.00353438
0.00359254
0.00365058
0.00370854
0.00376641
0.00382422
0.00388196
0.00393966
0.00399732
0.00405495
0.00411256
0.00417014
0.00422769
0.00428521
0.00434269
0.00440009
0.00445742
0.00451462
0.00457166
0.0046285
0.00468509
0.00474137
0.00479727
0.00485271
0.00490761
0.00496189
0.00501544
0.00506816
0.00511992
0.00517064
0.00522016
0.00526837
0.00531513
0.00536031
0.00540379
0.00544544
0.00548512
0.00552269
0.00555805
0.00559109
0.00562169
0.00564979
0.00567529
0.00569813
0.00571824
0.00573557
0.00574997
0.00576371
0.00577482
0.00578287
0.00578798
0.00579026
0.00578979
0.00578665
0.00578089
0.0057726
0.00576182
0.0057486
0.00573285
0.00571485
0.00569467
0.00567235
0.00564806
0.00562214
0.00559433
0.00556455
0.00553287
0.00549942
0.0054642
0.00542731
0.00538879
0.00534873
0.00530713
0.00526407
0.0052196
0.00517375
0.00512657
0.0050781
0.0050284
0.0049775
0.00492547
0.00487238
0.00481825
0.00476317
0.00470719
0.00465039
0.00459283
0.00453462
0.0044758
0.00441649
0.00435675
0.00429668
0.00423639
0.00417599
0.00411558
0.00405533
0.00399532
0.00393576
0.0038767
0.00381833
0.00376068
0.00370395
0.00364823
0.00359368
0.00354046
0.00348862
0.00343834
0.00338961
0.00334261
0.0032977
0.00325517
0.00321421
0.00317521
0.00313795
0.00310286
0.00306957
0.00303717
0.00300578
0.00297516
0.0029451
0.00291536
0.00288569
0.00285685
0.00282868
0.00280114
0.00277411
0.00274849
0.00272446
0.00270315
4.90471e-06
0.000181064
0.000387407
0.000565716
0.000715559
0.000841508
0.000948079
0.00103948
0.00111927
0.00119034
0.00125503
0.00131519
0.00137226
0.00142734
0.00148126
0.00153463
0.00158793
0.00164139
0.00169518
0.0017495
0.00180437
0.0018598
0.00191578
0.00197227
0.00202921
0.00208657
0.00214428
0.00220231
0.00226061
0.00231911
0.00237781
0.00243666
0.00249562
0.00255471
0.00261389
0.00267308
0.00273231
0.00279163
0.00285095
0.00291027
0.00296961
0.00302894
0.00308824
0.00314749
0.00320669
0.00326581
0.00332484
0.00338379
0.00344265
0.00350144
0.00356014
0.00361878
0.00367737
0.0037359
0.00379441
0.0038529
0.00391141
0.00396994
0.00402853
0.00408717
0.00414591
0.00420473
0.00426367
0.00432273
0.00438191
0.00444119
0.00450059
0.00456008
0.00461964
0.00467924
0.00473884
0.00479841
0.00485787
0.00491717
0.00497622
0.00503496
0.00509328
0.00515106
0.00520821
0.00526459
0.00532008
0.00537453
0.00542779
0.00547972
0.00553015
0.00557893
0.0056259
0.00567089
0.00571375
0.00575433
0.00579247
0.00582808
0.005861
0.00589114
0.00591838
0.00594264
0.00596381
0.00598172
0.00599856
0.00601255
0.00602324
0.00603067
0.00603495
0.00603612
0.00603426
0.00602942
0.00602167
0.00601107
0.00599768
0.00598148
0.00596265
0.00594128
0.00591745
0.00589135
0.00586312
0.00583264
0.00579991
0.00576501
0.00572802
0.005689
0.00564803
0.00560516
0.00556049
0.00551405
0.00546592
0.00541614
0.00536477
0.00531189
0.00525752
0.00520174
0.00514461
0.00508618
0.00502655
0.00496576
0.0049039
0.00484104
0.00477728
0.00471268
0.00464736
0.0045814
0.00451492
0.004448
0.00438077
0.00431335
0.00424588
0.00417849
0.00411136
0.00404459
0.00397842
0.00391292
0.0038483
0.00378465
0.00372221
0.00366113
0.00360161
0.00354364
0.00348757
0.00343396
0.0033828
0.00333391
0.0032871
0.00324278
0.00320081
0.0031616
0.00312496
0.00309082
0.00305891
0.0030288
0.00300027
0.0029731
0.00294702
0.00292175
0.00289706
0.00287316
0.00285009
0.00282786
0.00280648
0.00278654
0.00276851
0.002753
4.97273e-06
0.000182076
0.000390498
0.000572337
0.00072651
0.000857122
0.000968394
0.00106434
0.00114838
0.00122334
0.0012915
0.00135472
0.00141436
0.00147157
0.00152725
0.0015821
0.00163657
0.00169097
0.00174551
0.00180032
0.00185548
0.00191102
0.00196697
0.00202331
0.00208002
0.00213708
0.00219444
0.00225207
0.00230992
0.00236796
0.00242615
0.00248447
0.00254288
0.00260136
0.00265991
0.00271849
0.00277709
0.00283574
0.0028944
0.00295305
0.0030117
0.00307032
0.00312891
0.00318744
0.00324589
0.00330424
0.00336249
0.00342065
0.00347874
0.00353679
0.00359481
0.0036528
0.00371081
0.00376882
0.00382689
0.00388505
0.00394331
0.00400172
0.0040603
0.00411907
0.00417807
0.00423733
0.00429687
0.00435671
0.00441686
0.00447732
0.00453812
0.00459923
0.00466066
0.00472239
0.00478437
0.00484659
0.00490897
0.00497147
0.00503402
0.00509652
0.00515887
0.00522098
0.0052827
0.00534391
0.00540446
0.00546418