/*--------------------------------*- C++ -*----------------------------------*\
  =========                 |
  \\      /  F ield         | OpenFOAM: The Open Source CFD Toolbox
   \\    /   O peration     | Website:  https://openfoam.org
    \\  /    A nd           | Version:  7
     \\/     M anipulation  |
\*---------------------------------------------------------------------------*/
FoamFile
{
    version     2.0;
    format      ascii;
    class       volScalarField;
    location    "300";
    object      p;
}
// * * * * * * * * * * * * * * * * * * * * * * * * * * * * * * * * * * * * * //

dimensions      [0 2 -2 0 0 0 0];

internalField   nonuniform List<scalar> 
48900
(
-4.00466
-4.31821
-5.33811
-5.94635
-6.21256
-6.36598
-6.49232
-6.61572
-6.73837
-6.85833
-6.97508
-7.08954
-7.20375
-7.31996
-7.44159
-7.57368
-7.72511
-7.918
-4.54208
-4.9981
-5.39921
-5.87663
-6.14098
-6.31369
-6.45461
-6.58573
-6.71208
-6.83396
-6.95195
-7.06747
-7.18245
-7.29931
-7.42127
-7.55288
-7.70121
-7.87572
-4.58444
-5.00593
-5.48118
-5.87946
-6.13265
-6.30738
-6.45071
-6.58213
-6.70751
-6.82799
-6.94451
-7.0585
-7.1718
-7.28659
-7.4056
-7.53217
-7.66973
-7.81335
-4.80118
-5.10729
-5.51777
-5.87582
-6.12184
-6.29849
-6.44413
-6.5762
-6.70113
-6.82078
-6.93638
-7.04929
-7.16112
-7.27366
-7.38887
-7.50852
-7.63237
-7.74998
-4.97335
-5.18908
-5.56309
-5.88255
-6.11796
-6.29391
-6.44036
-6.57241
-6.69649
-6.81493
-6.92914
-7.04044
-7.15017
-7.25972
-7.37024
-7.48207
-7.59266
-7.6914
-5.12858
-5.27894
-5.60702
-5.89325
-6.11711
-6.29089
-6.43727
-6.56896
-6.69207
-6.8092
-6.92188
-7.03132
-7.13864
-7.24476
-7.35016
-7.45411
-7.55315
-7.63863
-5.26796
-5.37112
-5.65255
-5.90804
-6.11898
-6.28893
-6.43418
-6.56499
-6.6869
-6.80255
-6.91349
-7.02082
-7.1254
-7.22779
-7.32788
-7.42438
-7.51384
-7.58994
-5.39335
-5.46315
-5.70077
-5.92739
-6.12404
-6.2884
-6.43127
-6.56048
-6.68078
-6.79466
-6.90358
-7.00851
-7.11008
-7.2085
-7.30333
-7.39308
-7.47476
-7.54413
-5.50631
-5.5526
-5.75127
-5.95114
-6.13261
-6.2898
-6.429
-6.55577
-6.67393
-6.78565
-6.89222
-6.99445
-7.09274
-7.18709
-7.27686
-7.36062
-7.43607
-7.50048
-5.60807
-5.63789
-5.80312
-5.97852
-6.14455
-6.29339
-6.42778
-6.55128
-6.6667
-6.77582
-6.87968
-6.97891
-7.07373
-7.16398
-7.24899
-7.32754
-7.39797
-7.45861
-5.69963
-5.718
-5.85523
-6.00853
-6.15938
-6.29907
-6.42774
-6.54722
-6.65936
-6.76544
-6.86626
-6.96224
-7.05346
-7.13968
-7.22028
-7.29431
-7.36063
-7.41832
-5.77245
-5.78936
-5.90439
-6.0388
-6.17569
-6.30623
-6.42876
-6.5438
-6.65233
-6.75515
-6.85279
-6.94548
-7.0332
-7.11569
-7.19241
-7.26266
-7.32572
-7.38109
-5.84222
-5.84964
-5.94788
-6.06692
-6.19179
-6.31388
-6.43045
-6.54104
-6.64594
-6.74553
-6.84008
-6.92967
-7.01421
-7.09342
-7.16688
-7.23409
-7.29458
-7.34814
-5.91227
-5.91234
-5.99492
-6.09864
-6.21083
-6.32346
-6.43301
-6.5382
-6.63866
-6.73434
-6.82522
-6.91123
-6.9922
-7.06787
-7.13794
-7.20207
-7.26004
-7.3118
-5.97941
-5.97494
-6.04354
-6.13268
-6.2321
-6.33457
-6.43622
-6.53513
-6.63036
-6.72144
-6.80808
-6.89004
-6.96712
-7.03908
-7.10569
-7.16679
-7.2223
-7.27232
-6.03925
-6.03382
-6.09057
-6.1666
-6.25384
-6.34605
-6.43931
-6.53131
-6.62068
-6.7066
-6.78854
-6.86614
-6.93912
-7.00728
-7.07046
-7.12862
-7.18178
-7.23008
-6.08546
-6.08376
-6.13118
-6.19631
-6.27286
-6.35554
-6.44062
-6.52563
-6.60893
-6.68946
-6.76652
-6.83963
-6.9085
-6.97293
-7.03283
-7.0882
-7.13912
-7.18576
-6.1085
-6.11717
-6.1582
-6.21549
-6.28394
-6.359
-6.4372
-6.51605
-6.59382
-6.66934
-6.7418
-6.81071
-6.87575
-6.93675
-6.99365
-7.04648
-7.09534
-7.14041
-6.09246
-6.12223
-6.16066
-6.21455
-6.27918
-6.35028
-6.42451
-6.49945
-6.57341
-6.64522
-6.71415
-6.77971
-6.84164
-6.89981
-6.95421
-7.0049
-7.05199
-7.09564
-6.04045
-6.08502
-6.12654
-6.18391
-6.25159
-6.32487
-6.40028
-6.47547
-6.54893
-6.6197
-6.68721
-6.75115
-6.81139
-6.86791
-6.92076
-6.97005
-7.01593
-7.05857
-5.96822
-6.02645
-6.07542
-6.14129
-6.21682
-6.29644
-6.37645
-6.45468
-6.52993
-6.60156
-6.6693
-6.73304
-6.79284
-6.84877
-6.90099
-6.94966
-6.99496
-7.03709
-5.87827
-5.95039
-6.0116
-6.0908
-6.17822
-6.26714
-6.3538
-6.43649
-6.51452
-6.58776
-6.65631
-6.72038
-6.78016
-6.8359
-6.88783
-6.93616
-6.98112
-7.02292
-5.77315
-5.86086
-5.94011
-6.03746
-6.14018
-6.24038
-6.33471
-6.42228
-6.50327
-6.57821
-6.64768
-6.71216
-6.77207
-6.82776
-6.87952
-6.92764
-6.97237
-7.01395
-5.65439
-5.76062
-5.86519
-5.98522
-6.10603
-6.21849
-6.32054
-6.41265
-6.4962
-6.57251
-6.64266
-6.70744
-6.76742
-6.82305
-6.87469
-6.92263
-6.96717
-7.00855
-5.52327
-5.65175
-5.79073
-5.93719
-6.07809
-6.20272
-6.31174
-6.40745
-6.49274
-6.56983
-6.64029
-6.70514
-6.76508
-6.82059
-6.87207
-6.91983
-6.96418
-7.0054
-5.38235
-5.53632
-5.72014
-5.89564
-6.05747
-6.19318
-6.30775
-6.40573
-6.49176
-6.56899
-6.63937
-6.7041
-6.76391
-6.81928
-6.8706
-6.91819
-6.96237
-7.00345
-5.23577
-5.41729
-5.65444
-5.8614
-6.04344
-6.18863
-6.30712
-6.40608
-6.49205
-6.56895
-6.63906
-6.70362
-6.76332
-6.81863
-6.86987
-6.91734
-6.96138
-7.00238
-5.07745
-5.31118
-5.59245
-5.83243
-6.03396
-6.18771
-6.30908
-6.40823
-6.4937
-6.57011
-6.63993
-6.70435
-6.76404
-6.81936
-6.87059
-6.91801
-6.9619
-7.00276
-5.48453
-5.10254
-5.51385
-5.81398
-6.0352
-6.19661
-6.31883
-6.41631
-6.49975
-6.57454
-6.64328
-6.70704
-6.76635
-6.82146
-6.87254
-6.91978
-6.96339
-7.00379
1.19603
-5.90815
-5.68817
-5.88753
-6.0718
-6.217
-6.32858
-6.41914
-6.49912
-6.57284
-6.64187
-6.70656
-6.76701
-6.82323
-6.87527
-6.92328
-6.96736
-7.00764
-8.29713
-8.29565
-8.29629
-8.2987
-8.30249
-8.30711
-8.31226
-8.31778
-8.32359
-8.32973
-8.3363
-8.34343
-8.35121
-8.35978
-8.36926
-8.37976
-8.39139
-8.40422
-8.41832
-8.43373
-8.45045
-8.46848
-8.48779
-8.50834
-8.53004
-8.55285
-8.57666
-8.60135
-8.62684
-8.653
-8.6797
-8.70683
-8.73425
-8.76188
-8.78967
-8.81757
-8.84585
-8.87447
-8.90371
-8.9332
-8.96216
-8.98441
-8.99436
-9.00085
-9.01464
-9.03402
-9.05556
-9.08459
-9.12097
-9.13695
-9.14413
-9.14745
-9.14285
-9.1591
-9.18342
-9.2026
-9.21748
-9.22302
-9.2071
-9.20644
-9.20675
-9.1751
-9.13882
-9.14792
-9.15502
-9.11656
-9.07287
-9.03881
-9.00553
-8.97061
-8.9333
-8.8933
-8.85053
-8.80525
-8.75707
-8.70626
-8.65316
-8.59774
-8.53999
-8.48054
-8.41906
-8.35629
-8.29194
-8.22677
-8.16074
-8.09423
-8.02731
-7.96034
-7.8947
-7.82887
-7.76269
-7.69744
-7.63334
-7.5704
-7.50903
-7.44951
-7.39086
-7.33572
-7.28108
-7.2272
-7.17393
-7.12139
-7.06961
-7.01827
-6.96695
-6.91576
-6.86354
-6.81056
-6.75541
-6.69828
-6.63777
-6.57331
-6.50429
-6.4296
-6.34802
-6.25884
-6.1612
-6.05369
-5.93545
-5.80503
-5.66131
-5.50355
-5.33066
-5.14156
-4.93537
-4.7108
-4.46614
-4.20143
-3.91493
-3.60714
-3.27646
-2.9232
-2.54687
-2.14693
-1.72401
-1.27791
-0.809306
-0.318487
0.193473
0.725681
1.27698
1.84576
2.4309
3.03037
3.64175
4.26016
4.88621
5.5322
6.17575
6.77085
7.36958
7.99124
8.60962
9.21474
9.80628
10.3836
10.9454
11.4887
12.011
12.5082
12.9799
13.4305
13.8577
14.2581
14.6325
14.9781
15.2936
15.6424
15.9168
16.1588
16.3715
16.5352
16.6655
16.7827
16.8669
16.9429
17.0039
17.1207
17.2794
17.5196
-8.29262
-8.29539
-8.29647
-8.29846
-8.30036
-8.30225
-8.30431
-8.30676
-8.30971
-8.31327
-8.31753
-8.32256
-8.32846
-8.33529
-8.34315
-8.35214
-8.36235
-8.37384
-8.38667
-8.40088
-8.41647
-8.43344
-8.45176
-8.47136
-8.49219
-8.51415
-8.53715
-8.56108
-8.58582
-8.61126
-8.63729
-8.6638
-8.69068
-8.71784
-8.74512
-8.77228
-8.79903
-8.82497
-8.84951
-8.87184
-8.89128
-8.90944
-8.93304
-8.96237
-8.99087
-9.01667
-9.04072
-9.05715
-9.06366
-9.07654
-9.09153
-9.11085
-9.13768
-9.15083
-9.1503
-9.14548
-9.13933
-9.13579
-9.1396
-9.13198
-9.12004
-9.12172
-9.12192
-9.09198
-9.05915
-9.0461
-9.0289
-9.00286
-8.97264
-8.93939
-8.90328
-8.86433
-8.8226
-8.77803
-8.7307
-8.68077
-8.62837
-8.57346
-8.51643
-8.45728
-8.39629
-8.33364
-8.26959
-8.20436
-8.1383
-8.07154
-8.00426
-7.937
-7.87068
-7.80406
-7.73709
-7.67097
-7.60582
-7.54189
-7.47923
-7.41825
-7.35823
-7.30174
-7.24686
-7.1918
-7.1375
-7.08416
-7.03148
-6.9795
-6.9278
-6.87607
-6.8239
-6.77078
-6.71615
-6.65943
-6.5997
-6.53659
-6.46882
-6.39566
-6.31604
-6.22929
-6.13402
-6.02936
-5.91434
-5.78755
-5.64803
-5.49453
-5.32596
-5.14132
-4.9394
-4.71909
-4.47947
-4.21982
-3.9389
-3.63653
-3.31168
-2.96411
-2.59355
-2.19967
-1.78258
-1.34245
-0.879738
-0.39479
0.11138
0.638007
1.18388
1.74763
2.32782
2.92298
3.53095
4.1492
4.77246
5.39032
6.01233
6.63864
7.25869
7.87066
8.48221
9.0848
9.67571
10.2527
10.8147
11.3587
11.8829
12.3833
12.8586
13.3099
13.7373
14.1398
14.5162
14.8659
15.2065
15.5273
15.8266
16.0684
16.2793
16.4526
16.5912
16.7091
16.8004
16.8895
16.9918
17.0971
17.2374
17.4464
-8.27862
-8.28801
-8.29076
-8.29321
-8.29498
-8.29623
-8.29724
-8.29834
-8.29978
-8.30178
-8.30451
-8.30809
-8.31265
-8.31827
-8.32503
-8.33303
-8.34232
-8.35295
-8.36496
-8.37837
-8.39319
-8.40939
-8.42694
-8.4458
-8.46588
-8.48711
-8.5094
-8.53264
-8.55672
-8.58152
-8.60692
-8.63279
-8.65899
-8.68535
-8.71165
-8.7376
-8.76292
-8.7873
-8.81048
-8.83242
-8.85356
-8.8754
-8.90015
-8.9278
-8.95559
-8.98131
-9.00361
-9.02072
-9.03332
-9.04577
-9.06057
-9.07864
-9.09689
-9.10885
-9.1124
-9.11016
-9.10568
-9.10142
-9.09846
-9.09427
-9.0887
-9.08317
-9.07454
-9.05856
-9.03821
-9.01744
-8.99525
-8.96987
-8.94102
-8.90889
-8.87368
-8.83549
-8.79435
-8.75031
-8.70348
-8.654
-8.6019
-8.5473
-8.49044
-8.4314
-8.37046
-8.30772
-8.2435
-8.17799
-8.11148
-8.04424
-7.97639
-7.90838
-7.84098
-7.77333
-7.70554
-7.63864
-7.57265
-7.50769
-7.444
-7.38188
-7.32101
-7.26386
-7.20915
-7.15324
-7.09841
-7.04468
-6.99188
-6.93986
-6.8884
-6.83709
-6.78555
-6.73335
-6.67989
-6.62456
-6.56662
-6.50543
-6.44005
-6.36952
-6.29292
-6.20931
-6.11754
-6.01662
-5.90557
-5.78296
-5.64786
-5.49895
-5.33538
-5.15578
-4.95907
-4.74424
-4.51025
-4.25637
-3.98144
-3.68506
-3.36633
-3.02484
-2.66037
-2.27257
-1.86148
-1.42725
-0.970353
-0.491082
0.00956199
0.530846
1.07162
1.63054
2.20616
2.79658
3.39966
4.01242
4.63162
5.25166
5.87323
6.4894
7.10927
7.72366
8.33348
8.93531
9.52631
10.1037
10.6658
11.2102
11.7351
12.2375
12.7164
13.1715
13.6008
14.0055
14.3863
14.7471
15.096
15.4093
15.6944
15.9509
16.1663
16.3461
16.4948
16.6229
16.7328
16.8323
16.9415
17.0572
17.1886
17.3545
-8.25922
-8.27405
-8.28048
-8.28501
-8.28804
-8.29
-8.29131
-8.29238
-8.29356
-8.29513
-8.29735
-8.3004
-8.30442
-8.30953
-8.31583
-8.32339
-8.33226
-8.3425
-8.35413
-8.36715
-8.38156
-8.39734
-8.41445
-8.43284
-8.45243
-8.47314
-8.49489
-8.51757
-8.54107
-8.56527
-8.59005
-8.61527
-8.64075
-8.66634
-8.69184
-8.71703
-8.74173
-8.76578
-8.78917
-8.812
-8.83463
-8.85767
-8.88175
-8.90681
-8.93193
-8.95578
-8.97725
-8.99565
-9.01145
-9.02621
-9.0412
-9.05632
-9.07004
-9.08016
-9.08563
-9.08692
-9.08535
-9.08202
-9.07781
-9.07288
-9.06715
-9.05996
-9.04974
-9.03533
-9.01743
-8.99688
-8.97372
-8.9478
-8.9189
-8.88689
-8.85185
-8.8137
-8.77252
-8.72843
-8.68149
-8.63178
-8.57939
-8.52449
-8.46725
-8.40777
-8.3463
-8.28297
-8.21813
-8.15191
-8.0847
-8.01667
-7.94808
-7.87931
-7.81111
-7.7425
-7.67393
-7.60641
-7.53976
-7.47413
-7.40984
-7.34718
-7.28599
-7.22893
-7.17493
-7.11897
-7.06436
-7.01105
-6.95888
-6.90772
-6.8573
-6.80732
-6.75739
-6.70694
-6.65546
-6.6023
-6.54694
-6.48844
-6.42599
-6.35858
-6.2854
-6.20535
-6.11741
-6.02041
-5.91349
-5.79509
-5.6643
-5.51974
-5.36076
-5.18573
-4.99379
-4.78385
-4.55469
-4.3057
-4.03579
-3.74427
-3.43029
-3.09369
-2.73393
-2.35081
-1.94418
-1.51434
-1.06167
-0.586459
-0.0896838
0.427914
0.965152
1.52069
2.09295
2.68002
3.27948
3.88806
4.50206
5.11804
5.7359
6.35248
6.97153
7.58657
8.19545
8.79641
9.38671
9.96358
10.5252
11.0687
11.593
12.096
12.5776
13.037
13.4718
13.8819
14.2687
14.6359
14.9852
15.3006
15.5822
15.8361
16.0575
16.2469
16.4069
16.5447
16.6653
16.7748
16.89
17.0087
17.1305
17.2602
-8.23913
-8.25705
-8.26753
-8.27483
-8.27992
-8.28339
-8.28582
-8.2877
-8.28945
-8.29143
-8.29392
-8.29714
-8.30129
-8.30649
-8.31286
-8.32047
-8.32938
-8.33962
-8.35122
-8.36418
-8.3785
-8.39413
-8.41104
-8.42918
-8.44848
-8.46885
-8.49022
-8.51248
-8.53553
-8.55924
-8.58349
-8.60816
-8.63309
-8.65815
-8.68316
-8.70797
-8.73251
-8.75662
-8.78035
-8.80376
-8.82698
-8.85023
-8.87361
-8.89707
-8.92019
-8.94236
-8.96305
-8.98185
-8.99885
-9.01453
-9.02914
-9.0426
-9.05429
-9.06344
-9.06954
-9.07255
-9.07284
-9.07108
-9.06752
-9.06244
-9.05577
-9.04707
-9.03581
-9.02143
-9.0039
-8.98335
-8.95989
-8.9335
-8.90417
-8.87177
-8.83625
-8.79758
-8.75594
-8.71127
-8.66372
-8.61325
-8.56013
-8.50445
-8.4463
-8.38586
-8.32343
-8.25917
-8.19328
-8.12606
-8.05782
-7.98877
-7.91915
-7.84951
-7.78028
-7.71052
-7.6411
-7.57296
-7.50579
-7.43974
-7.37523
-7.31243
-7.25127
-7.19467
-7.14178
-7.08642
-7.03255
-6.98027
-6.92947
-6.87986
-6.83125
-6.78331
-6.73567
-6.68778
-6.63908
-6.58882
-6.53657
-6.48147
-6.42251
-6.3588
-6.28943
-6.21339
-6.1296
-6.03679
-5.93405
-5.81995
-5.6936
-5.55349
-5.39888
-5.22838
-5.04097
-4.8354
-4.61066
-4.36605
-4.1003
-3.81304
-3.50312
-3.17035
-2.81445
-2.43503
-2.03196
-1.60549
-1.1559
-0.683676
-0.189623
0.325351
0.860144
1.41323
1.98316
2.56772
3.16449
3.77041
4.38216
4.99733
5.61476
6.23285
6.85177
7.46719
8.07626
8.67721
9.26768
9.84497
10.407
10.9512
11.4764
11.9808
12.4644
12.9262
13.3643
13.779
14.1706
14.5409
14.8893
15.2064
15.4901
15.7436
15.9682
16.1642
16.3327
16.4788
16.6073
16.7241
16.8407
16.9566
17.0675
17.1694
-8.22176
-8.24063
-8.25464
-8.26468
-8.272
-8.27727
-8.28119
-8.28431
-8.28711
-8.28997
-8.29321
-8.29709
-8.3018
-8.30749
-8.31429
-8.32228
-8.33152
-8.34204
-8.35387
-8.367
-8.38142
-8.3971
-8.41399
-8.43205
-8.45121
-8.4714
-8.49252
-8.51448
-8.53718
-8.56051
-8.58437
-8.60861
-8.63314
-8.6578
-8.68249
-8.70709
-8.73149
-8.75568
-8.77958
-8.8032
-8.82657
-8.84972
-8.87261
-8.89517
-8.91713
-8.93821
-8.95818
-8.97679
-8.99395
-9.00966
-9.02391
-9.03654
-9.04732
-9.05588
-9.06204
-9.06572
-9.06704
-9.06619
-9.06325
-9.05821
-9.05103
-9.04141
-9.02924
-9.01415
-8.99616
-8.97521
-8.95125
-8.92426
-8.89422
-8.861
-8.82467
-8.78516
-8.74253
-8.69682
-8.64812
-8.59657
-8.54226
-8.48526
-8.42584
-8.36406
-8.30017
-8.23452
-8.16731
-8.09873
-8.02915
-7.9588
-7.8879
-7.81719
-7.74701
-7.67616
-7.60579
-7.53705
-7.46942
-7.40325
-7.33872
-7.27602
-7.21535
-7.15957
-7.10771
-7.05372
-7.00118
-6.95066
-6.90172
-6.85428
-6.80813
-6.76298
-6.71828
-6.67358
-6.62821
-6.58159
-6.53312
-6.48185
-6.4269
-6.36747
-6.30246
-6.23089
-6.1514
-6.06302
-5.96497
-5.85544
-5.73365
-5.59797
-5.44785
-5.28172
-5.09867
-4.89734
-4.67677
-4.43614
-4.17419
-3.89054
-3.58429
-3.25494
-2.9021
-2.52571
-2.12542
-1.70153
-1.2544
-0.784331
-0.292225
0.220965
0.754161
1.30578
1.87409
2.45707
3.05238
3.65705
4.26819
4.88387
5.50223
6.12198
6.74137
7.35741
7.96732
8.56903
9.16042
9.7388
10.3022
10.848
11.3751
11.8819
12.368
12.8324
13.2735
13.6915
14.0862
14.4584
14.8064
15.1246
15.411
15.6669
15.8945
16.095
16.2697
16.4221
16.5563
16.6776
16.7933
16.9037
17.0033
17.0844
-8.20922
-8.22741
-8.24403
-8.25633
-8.26563
-8.27264
-8.27808
-8.28256
-8.28658
-8.29053
-8.29475
-8.29951
-8.30501
-8.31141
-8.31884
-8.3274
-8.33713
-8.34808
-8.36027
-8.3737
-8.38835
-8.40419
-8.42118
-8.43927
-8.4584
-8.47849
-8.49946
-8.52122
-8.5437
-8.56676
-8.59032
-8.61427
-8.63849
-8.66287
-8.68732
-8.71178
-8.73608
-8.76023
-8.78416
-8.8078
-8.83114
-8.85408
-8.87662
-8.89863
-8.9199
-8.94032
-8.95972
-8.97793
-8.99485
-9.01029
-9.02415
-9.03635
-9.0466
-9.05489
-9.06099
-9.06487
-9.06653
-9.066
-9.0632
-9.05809
-9.05048
-9.04027
-9.02733
-9.01149
-8.99279
-8.97106
-8.94628
-8.91845
-8.88741
-8.85305
-8.81556
-8.77479
-8.73088
-8.68381
-8.6336
-8.58043
-8.52445
-8.46583
-8.40468
-8.34113
-8.27556
-8.20816
-8.13907
-8.06894
-7.99768
-7.92576
-7.85351
-7.78133
-7.70988
-7.63825
-7.56728
-7.49788
-7.42985
-7.3635
-7.29923
-7.23698
-7.17704
-7.12218
-7.07191
-7.01948
-6.96889
-6.92049
-6.87411
-6.82941
-6.78635
-6.74454
-6.70334
-6.6623
-6.62098
-6.57865
-6.53442
-6.48761
-6.43721
-6.38251
-6.32239
-6.25558
-6.18094
-6.09749
-6.0042
-5.89959
-5.7825
-5.65157
-5.50598
-5.34445
-5.16556
-4.96848
-4.75196
-4.51509
-4.2567
-3.97646
-3.67349
-3.34706
-2.99726
-2.62318
-2.22527
-1.80344
-1.35812
-0.889529
-0.398755
0.113162
0.645366
1.19604
1.76368
2.34592
2.94054
3.54511
4.15665
4.77343
5.39326
6.01469
6.63528
7.25251
7.86388
8.46714
9.06
9.63993
10.205
10.753
11.2825
11.792
12.2807
12.7477
13.1918
13.6126
14.0099
14.3837
14.7321
15.0515
15.3404
15.5994
15.8302
16.0346
16.2141
16.3712
16.5094
16.6332
16.7472
16.8513
16.9402
17.0054
-8.20256
-8.21885
-8.23705
-8.25095
-8.26175
-8.2702
-8.27698
-8.28272
-8.2879
-8.29295
-8.29818
-8.30386
-8.3102
-8.31738
-8.32551
-8.33468
-8.34497
-8.3564
-8.36901
-8.38278
-8.39771
-8.41377
-8.43092
-8.44909
-8.46825
-8.48831
-8.50921
-8.53086
-8.55317
-8.57605
-8.59943
-8.62316
-8.64718
-8.6714
-8.6957
-8.72003
-8.74426
-8.76833
-8.79221
-8.81577
-8.83901
-8.86179
-8.88404
-8.90566
-8.92656
-8.94659
-8.96556
-8.98339
-8.99999
-9.01506
-9.02863
-9.04052
-9.05056
-9.05857
-9.0646
-9.06846
-9.07016
-9.06954
-9.06662
-9.06112
-9.05313
-9.04234
-9.02867
-9.01214
-8.99249
-8.96978
-8.94399
-8.91489
-8.88254
-8.84691
-8.80789
-8.76553
-8.71993
-8.67109
-8.61905
-8.56396
-8.50608
-8.44537
-8.38206
-8.31641
-8.24885
-8.17923
-8.10833
-8.03596
-7.96289
-7.88932
-7.8154
-7.74185
-7.6692
-7.59629
-7.52424
-7.45443
-7.38617
-7.31984
-7.25583
-7.19438
-7.13557
-7.08174
-7.03312
-6.98281
-6.93465
-6.88893
-6.84541
-6.804
-6.76458
-6.72659
-6.68955
-6.65295
-6.61608
-6.57843
-6.53917
-6.49731
-6.45212
-6.4026
-6.34755
-6.28593
-6.21657
-6.13845
-6.05039
-5.95084
-5.83873
-5.71269
-5.57189
-5.41483
-5.2403
-5.04741
-4.8348
-4.60172
-4.3469
-4.06993
-3.76997
-3.44643
-3.09886
-2.72704
-2.33109
-1.91108
-1.46717
-0.999732
-0.509889
0.00130761
0.532867
1.08324
1.65071
2.23288
2.82761
3.43271
4.04522
4.66351
5.28516
5.90853
6.53063
7.14963
7.76294
8.36809
8.9631
9.54511
10.1124
10.6629
11.1951
11.7073
12.1988
12.6685
13.1153
13.5388
13.9384
14.3137
14.663
14.9839
15.2753
15.5373
15.7715
15.9794
16.1628
16.3236
16.4648
16.5898
16.7016
16.7997
16.8788
16.9317
-8.20191
-8.21555
-8.23431
-8.24903
-8.26079
-8.27023
-8.27803
-8.28478
-8.29095
-8.29694
-8.30308
-8.3096
-8.31674
-8.32463
-8.33341
-8.34317
-8.35398
-8.36587
-8.37886
-8.39297
-8.40816
-8.42443
-8.44172
-8.46
-8.4792
-8.49926
-8.52012
-8.54171
-8.56394
-8.58671
-8.60992
-8.63353
-8.65743
-8.68149
-8.70571
-8.72993
-8.75408
-8.77812
-8.80192
-8.82545
-8.84858
-8.87122
-8.89334
-8.91479
-8.93542
-8.95517
-8.9739
-8.99146
-9.00772
-9.02257
-9.03593
-9.04755
-9.05741
-9.0653
-9.07118
-9.07495
-9.07644
-9.07558
-9.07225
-9.0664
-9.05782
-9.04634
-9.03197
-9.01438
-8.99377
-8.96997
-8.94282
-8.91242
-8.87852
-8.84116
-8.80042
-8.75615
-8.70854
-8.65753
-8.60331
-8.54584
-8.48564
-8.4225
-8.35691
-8.28883
-8.21866
-8.14678
-8.07347
-7.99891
-7.92367
-7.84818
-7.77248
-7.69753
-7.6235
-7.54938
-7.47646
-7.40603
-7.33768
-7.27153
-7.20807
-7.1476
-7.09021
-7.03777
-6.99079
-6.94292
-6.89753
-6.85489
-6.81507
-6.77745
-6.74212
-6.70853
-6.67614
-6.64427
-6.61255
-6.58021
-6.54622
-6.51006
-6.47038
-6.4263
-6.3769
-6.32096
-6.25736
-6.18477
-6.10208
-6.00793
-5.90105
-5.78001
-5.64418
-5.49181
-5.32153
-5.13284
-4.92417
-4.69481
-4.44366
-4.16977
-3.8726
-3.5516
-3.20646
-2.83669
-2.44253
-2.0239
-1.58107
-1.11458
-0.625506
-0.114426
0.416888
0.967141
1.53491
2.11745
2.7129
3.31895
3.93284
4.55285
5.1764
5.80168
6.42594
7.04706
7.66265
8.2702
8.86748
9.45209
10.0221
10.5753
11.1102
11.6254
12.1196
12.5922
13.0416
13.4676
13.8695
14.2465
14.5972
14.9197
15.2135
15.4785
15.7159
15.9272
16.1139
16.2778
16.4211
16.5466
16.6561
16.7486
16.8193
16.8625
-8.20678
-8.21736
-8.23575
-8.25055
-8.26264
-8.2726
-8.28103
-8.28847
-8.29537
-8.3021
-8.30894
-8.31616
-8.32393
-8.33243
-8.34175
-8.35201
-8.36324
-8.37551
-8.38882
-8.4032
-8.4186
-8.43503
-8.45245
-8.47082
-8.49007
-8.51015
-8.53099
-8.55252
-8.57467
-8.59737
-8.62052
-8.64404
-8.66785
-8.69185
-8.71601
-8.74021
-8.76433
-8.78836
-8.81214
-8.83562
-8.85871
-8.88138
-8.9034
-8.92473
-8.94529
-8.96492
-8.98348
-9.00088
-9.01705
-9.03179
-9.04494
-9.05642
-9.06615
-9.07394
-9.07961
-9.08312
-9.08444
-9.08323
-9.07945
-9.07298
-9.06372
-9.05142
-9.0362
-9.01777
-8.99596
-8.97076
-8.94217
-8.91004
-8.8744
-8.8351
-8.79235
-8.74589
-8.69587
-8.6424
-8.58563
-8.52571
-8.46265
-8.39683
-8.32841
-8.25759
-8.18458
-8.11001
-8.03408
-7.95711
-7.87949
-7.80184
-7.72426
-7.64764
-7.57234
-7.49686
-7.42301
-7.35238
-7.28387
-7.21804
-7.15534
-7.09604
-7.04028
-6.98949
-6.94444
-6.89929
-6.85721
-6.81842
-6.78245
-6.74909
-6.71826
-6.68935
-6.66212
-6.63588
-6.6096
-6.58272
-6.55459
-6.52425
-6.49059
-6.45265
-6.40931
-6.35924
-6.30164
-6.23485
-6.15796
-6.06928
-5.96787
-5.8521
-5.72126
-5.57349
-5.40793
-5.2235
-5.01883
-4.79317
-4.54525
-4.27449
-3.97998
-3.66158
-3.31863
-2.95081
-2.55807
-2.1406
-1.69882
-1.23294
-0.744274
-0.2334
0.298017
0.848668
1.41661
1.99984
2.59614
3.20324
3.81861
4.44048
5.0661
5.69348
6.31996
6.94373
7.56188
8.17215
8.77208
9.35953
9.93252
10.4884
11.0263
11.5444
12.0415
12.5167
12.9689
13.3974
13.8015
14.1803
14.5326
14.8572
15.1533
15.4212
15.6617
15.8762
16.0659
16.2323
16.3773
16.5029
16.6102
16.6977
16.7614
16.7968
-8.21621
-8.22363
-8.24084
-8.25503
-8.26689
-8.27688
-8.28553
-8.29332
-8.30064
-8.30784
-8.31518
-8.32288
-8.33111
-8.34004
-8.34976
-8.36036
-8.37191
-8.38444
-8.39798
-8.41253
-8.42808
-8.44464
-8.46214
-8.48055
-8.49982
-8.51989
-8.54071
-8.56223
-8.58434
-8.607
-8.63011
-8.6536
-8.67737
-8.70138
-8.72554
-8.74973
-8.77394
-8.79797
-8.82183
-8.84538
-8.86855
-8.89117
-8.91329
-8.93469
-8.95524
-8.97484
-8.99339
-9.01083
-9.02696
-9.04162
-9.05473
-9.06618
-9.07579
-9.08346
-9.08895
-9.09222
-9.09326
-9.09152
-9.08731
-9.0802
-9.07012
-9.05695
-9.0407
-9.02099
-8.99787
-8.97123
-8.94088
-8.90694
-8.86928
-8.82779
-8.78271
-8.73372
-8.68103
-8.62489
-8.56529
-8.50229
-8.43624
-8.36733
-8.29583
-8.22183
-8.14594
-8.06841
-7.98948
-7.9099
-7.82963
-7.74972
-7.66993
-7.59159
-7.51479
-7.43793
-7.3635
-7.29251
-7.22424
-7.15914
-7.09712
-7.03915
-6.9854
-6.93679
-6.89392
-6.85186
-6.81341
-6.77852
-6.74692
-6.71822
-6.69258
-6.66893
-6.64721
-6.62671
-6.6065
-6.58572
-6.56385
-6.53963
-6.51221
-6.48069
-6.44361
-6.39992
-6.3483
-6.28776
-6.21676
-6.13379
-6.03802
-5.92752
-5.80167
-5.6589
-5.4979
-5.3177
-5.11702
-4.89507
-4.65039
-4.38276
-4.09095
-3.77489
-3.43395
-3.0678
-2.67653
-2.26028
-1.81928
-1.35405
-0.865656
-0.355045
0.176553
0.727346
1.29591
1.87983
2.47722
3.08559
3.70269
4.3265
4.95426
5.58412
6.21315
6.83947
7.4605
8.07346
8.67623
9.26646
9.84237
10.4012
10.9422
11.4632
11.9629
12.4409
12.8957
13.3267
13.733
14.1138
14.4681
14.7947
15.0934
15.3642
15.6077
15.8251
16.0176
16.1862
16.3325
16.458
16.5632
16.6465
16.7043
16.7337
-8.22893
-8.23335
-8.24872
-8.26172
-8.27283
-8.28241
-8.2909
-8.2987
-8.30615
-8.31355
-8.32113
-8.3291
-8.3376
-8.34678
-8.35674
-8.36754
-8.37926
-8.39193
-8.40557
-8.42022
-8.43583
-8.45241
-8.46992
-8.48833
-8.50761
-8.52767
-8.54851
-8.57
-8.59211
-8.61476
-8.63789
-8.6614
-8.68524
-8.7093
-8.73353
-8.75783
-8.7821
-8.80626
-8.83024
-8.85392
-8.87725
-8.9001
-8.92232
-8.94385
-8.96454
-8.98432
-9.003
-9.02052
-9.0367
-9.05147
-9.06459
-9.07607
-9.08557
-9.09306
-9.09843
-9.10146
-9.10192
-9.09995
-9.09505
-9.08726
-9.0763
-9.06222
-9.04465
-9.02362
-8.99884
-8.97053
-8.93831
-8.90233
-8.86232
-8.81849
-8.77063
-8.71881
-8.66322
-8.60393
-8.54119
-8.47477
-8.40541
-8.33305
-8.25799
-8.18084
-8.10162
-8.02083
-7.93894
-7.85617
-7.77337
-7.69102
-7.60901
-7.52876
-7.4505
-7.37248
-7.29722
-7.22603
-7.15817
-7.0937
-7.03306
-6.97698
-6.92521
-6.87891
-6.83848
-6.8001
-6.7657
-6.73517
-6.70829
-6.68469
-6.66448
-6.64671
-6.63076
-6.61635
-6.60219
-6.58789
-6.57255
-6.55496
-6.5342
-6.50936
-6.47883
-6.44158
-6.39625
-6.34163
-6.27678
-6.19978
-6.10957
-6.00459
-5.88403
-5.74615
-5.58953
-5.41361
-5.21712
-4.99867
-4.75717
-4.49256
-4.20345
-3.88953
-3.55074
-3.18644
-2.79665
-2.38166
-1.94161
-1.47713
-0.988856
-0.47855
0.0531793
0.604428
1.17362
1.75843
2.35688
2.96683
3.58564
4.21139
4.84148
5.47382
6.10537
6.7344
7.35819
7.97398
8.57981
9.17288
9.75148
10.3134
10.8571
11.3809
11.8834
12.3639
12.8213
13.2547
13.6632
14.0461
14.4024
14.7314
15.0326
15.3062
15.5527
15.773
15.968
16.1387
16.2861
16.4115
16.5147
16.5946
16.6477
16.6721
-8.24359
-8.24534
-8.25837
-8.26972
-8.27965
-8.28845
-8.29643
-8.30394
-8.31124
-8.31858
-8.32617
-8.33418
-8.34276
-8.352
-8.36202
-8.37287
-8.38463
-8.39731
-8.41097
-8.42561
-8.44121
-8.45777
-8.47525
-8.49362
-8.51288
-8.53293
-8.55373
-8.57524
-8.59736
-8.62006
-8.64323
-8.66684
-8.69079
-8.715
-8.73935
-8.76381
-8.78833
-8.81271
-8.83691
-8.86085
-8.88447
-8.90749
-8.92997
-8.95177
-8.97274
-8.99275
-9.01169
-9.0294
-9.04577
-9.06065
-9.07386
-9.08529
-9.09475
-9.1021
-9.10731
-9.11003
-9.11002
-9.10743
-9.10182
-9.09324
-9.08126
-9.06599
-9.04704
-9.02439
-8.99799
-8.96767
-8.93328
-8.89486
-8.85235
-8.8056
-8.75492
-8.70012
-8.64123
-8.57863
-8.51209
-8.44227
-8.36932
-8.29321
-8.21446
-8.13357
-8.05072
-7.96643
-7.88117
-7.79527
-7.70963
-7.62467
-7.54042
-7.45842
-7.37838
-7.29947
-7.22382
-7.15257
-7.08495
-7.02143
-6.96239
-6.90816
-6.85892
-6.81527
-6.77762
-6.7433
-6.71308
-6.68735
-6.66579
-6.64768
-6.63316
-6.62141
-6.61201
-6.60394
-6.59631
-6.58885
-6.58044
-6.56966
-6.55572
-6.53738
-6.51369
-6.48308
-6.44439
-6.39635
-6.33752
-6.26647
-6.18196
-6.08248
-5.96692
-5.83392
-5.68223
-5.51059
-5.31773
-5.10283
-4.86485
-4.60322
-4.31681
-4.00528
-3.66838
-3.30599
-2.91753
-2.50354
-2.06447
-1.60045
-1.11263
-0.602254
-0.0702726
0.481469
1.05122
1.63698
2.23659
2.84803
3.46861
4.09627
4.72865
5.36342
5.99755
6.62909
7.25547
7.8741
8.48259
9.07838
9.6597
10.2242
10.7707
11.2972
11.8024
12.2854
12.7451
13.1807
13.5914
13.9764
14.335
14.6662
14.9701
15.2465
15.4959
15.7189
15.9163
16.0889
16.2374
16.3626
16.4644
16.5414
16.5907
16.6114
-8.2588
-8.25834
-8.26873
-8.27809
-8.28655
-8.29425
-8.30145
-8.30838
-8.31528
-8.32234
-8.32972
-8.33758
-8.34603
-8.35517
-8.36509
-8.37588
-8.38753
-8.40014
-8.4137
-8.42825
-8.44377
-8.46024
-8.47767
-8.49599
-8.5152
-8.53523
-8.55604
-8.57755
-8.59972
-8.62252
-8.6458
-8.66953
-8.69362
-8.71806
-8.74268
-8.76739
-8.79217
-8.81685
-8.84139
-8.86565
-8.88954
-8.91301
-8.93586
-8.95798
-8.97924
-8.99952
-9.01878
-9.03672
-9.05324
-9.06827
-9.08165
-9.09301
-9.10247
-9.10965
-9.11455
-9.1168
-9.11631
-9.11297
-9.10656
-9.09686
-9.08369
-9.06712
-9.0466
-9.02224
-8.99375
-8.96124
-8.92448
-8.88336
-8.83806
-8.78824
-8.7342
-8.67587
-8.61344
-8.54711
-8.47685
-8.40295
-8.32587
-8.24583
-8.16293
-8.07809
-7.99135
-7.90322
-7.81449
-7.72531
-7.63659
-7.54893
-7.46232
-7.3784
-7.29711
-7.21697
-7.14082
-7.06977
-7.0029
-6.94062
-6.8833
-6.83138
-6.78506
-6.7447
-6.7103
-6.68
-6.65456
-6.63428
-6.61822
-6.60601
-6.59775
-6.59281
-6.58975
-6.58858
-6.58794
-6.58765
-6.58601
-6.58253
-6.57591
-6.56461
-6.54749
-6.52363
-6.49171
-6.44988
-6.39735
-6.33232
-6.25369
-6.15973
-6.0494
-5.92163
-5.77416
-5.60681
-5.41767
-5.20634
-4.97198
-4.71322
-4.42933
-4.11996
-3.78512
-3.42415
-3.03706
-2.62421
-2.18591
-1.72237
-1.23491
-0.724386
-0.192273
0.36004
0.930444
1.51719
2.11804
2.73074
3.35305
3.98279
4.61698
5.25401
5.89035
6.52424
7.15312
7.7741
8.38501
8.98339
9.56723
10.1342
10.6831
11.2119
11.7195
12.2048
12.6665
13.1043
13.5171
13.9041
14.2648
14.5985
14.9049
15.1841
15.4363
15.662
15.8617
16.036
16.1856
16.3109
16.4115
16.4863
16.5327
16.5506
-8.27341
-8.27122
-8.27883
-8.28604
-8.2928
-8.2992
-8.30539
-8.31154
-8.31782
-8.32439
-8.33137
-8.33888
-8.34704
-8.35593
-8.36561
-8.37617
-8.38764
-8.40005
-8.41344
-8.42782
-8.44319
-8.45954
-8.47684
-8.49509
-8.51423
-8.53423
-8.55504
-8.57659
-8.59885
-8.62173
-8.64517
-8.6691
-8.69343
-8.71809
-8.743
-8.76805
-8.79315
-8.81821
-8.84313
-8.86779
-8.89208
-8.9159
-8.93911
-8.9616
-8.98323
-9.00386
-9.02333
-9.04151
-9.05824
-9.07335
-9.08668
-9.09803
-9.10724
-9.11417
-9.11856
-9.12026
-9.11914
-9.11496
-9.10745
-9.09647
-9.08197
-9.06367
-9.04125
-9.01486
-8.98414
-8.94912
-8.9096
-8.86559
-8.81699
-8.76388
-8.70619
-8.64405
-8.57767
-8.50708
-8.43263
-8.35446
-8.273
-8.18842
-8.10142
-8.01229
-7.92138
-7.82945
-7.73687
-7.64439
-7.5525
-7.462
-7.3731
-7.28724
-7.20455
-7.12382
-7.04757
-6.97667
-6.91077
-6.85044
-6.79514
-6.74585
-6.70293
-6.66612
-6.63539
-6.60976
-6.58992
-6.5754
-6.56561
-6.55963
-6.55803
-6.55963
-6.56396
-6.57001
-6.57643
-6.58361
-6.58924
-6.59289
-6.5937
-6.58938
-6.57936
-6.56244
-6.53721
-6.5021
-6.45587
-6.3966
-6.32361
-6.23506
-6.1299
-6.00667
-5.86395
-5.70062
-5.51544
-5.30759
-5.07615
-4.81995
-4.53857
-4.23173
-3.89857
-3.53921
-3.15341
-2.74156
-2.3039
-1.84078
-1.35353
-0.843051
-0.310763
0.241912
0.813003
1.40053
2.00271
2.61663
3.24035
3.87181
4.50778
5.14654
5.78489
6.42093
7.05187
7.67501
8.28794
8.88854
9.47444
10.0436
10.5944
11.1252
11.6347
12.1218
12.5856
13.0252
13.4397
13.8287
14.1915
14.5275
14.8365
15.1182
15.3731
15.6014
15.8033
15.9794
16.1301
16.2555
16.3554
16.4285
16.4728
16.4887
-8.28701
-8.28323
-8.28808
-8.29305
-8.29801
-8.30296
-8.30796
-8.31314
-8.3186
-8.32447
-8.33085
-8.33783
-8.34552
-8.35398
-8.36328
-8.37347
-8.38461
-8.39673
-8.40984
-8.42397
-8.43911
-8.45525
-8.47239
-8.4905
-8.50954
-8.52947
-8.55026
-8.57184
-8.59416
-8.61715
-8.64074
-8.66486
-8.68942
-8.71435
-8.73954
-8.76491
-8.79036
-8.81578
-8.84108
-8.86612
-8.8908
-8.91499
-8.93854
-8.96135
-8.98325
-9.0041
-9.02374
-9.04202
-9.05877
-9.07382
-9.08699
-9.09808
-9.10694
-9.11334
-9.1171
-9.11802
-9.11589
-9.11052
-9.10173
-9.08929
-9.07302
-9.05275
-9.02829
-8.9995
-8.96622
-8.92832
-8.88576
-8.83843
-8.78632
-8.72943
-8.66782
-8.60158
-8.53085
-8.45585
-8.3768
-8.29402
-8.20787
-8.11874
-8.02712
-7.93346
-7.83835
-7.74235
-7.64608
-7.55019
-7.45542
-7.36215
-7.27107
-7.1833
-7.09921
-7.01859
-6.94288
-6.87273
-6.80837
-6.75021
-6.69746
-6.65125
-6.61226
-6.57975
-6.55338
-6.53328
-6.51919
-6.51063
-6.50722
-6.50846
-6.51381
-6.52257
-6.5341
-6.5474
-6.56166
-6.57606
-6.58936
-6.60052
-6.60826
-6.61132
-6.60839
-6.59827
-6.5795