/*--------------------------------*- C++ -*----------------------------------*\
  =========                 |
  \\      /  F ield         | OpenFOAM: The Open Source CFD Toolbox
   \\    /   O peration     | Website:  https://openfoam.org
    \\  /    A nd           | Version:  7
     \\/     M anipulation  |
\*---------------------------------------------------------------------------*/
FoamFile
{
    version     2.0;
    format      ascii;
    class       surfaceScalarField;
    location    "300";
    object      phi;
}
// * * * * * * * * * * * * * * * * * * * * * * * * * * * * * * * * * * * * * //

dimensions      [0 3 -1 0 0 0 0];

internalField   nonuniform List<scalar> 
97240
(
-6.49253e-08
2.62407e-08
1.63289e-06
-1.43916e-06
1.36168e-06
7.74865e-08
-1.28665e-06
1.21935e-06
6.72989e-08
-1.16116e-06
1.11569e-06
4.54759e-08
-1.07954e-06
1.05177e-06
2.77758e-08
-1.02893e-06
1.01016e-06
1.87731e-08
-9.93456e-07
9.78713e-07
1.47471e-08
-9.64892e-07
9.52314e-07
1.25821e-08
-9.40351e-07
9.29417e-07
1.09368e-08
-9.19033e-07
9.0958e-07
9.45633e-09
-9.00646e-07
8.92546e-07
8.10333e-09
-8.8491e-07
8.78004e-07
6.90888e-09
-8.71518e-07
8.65677e-07
5.84396e-09
-8.60217e-07
8.55328e-07
4.89147e-09
-8.50798e-07
8.46794e-07
4.007e-09
-8.43158e-07
8.40052e-07
3.10913e-09
-8.37392e-07
8.35381e-07
2.01438e-09
-8.34129e-07
8.33801e-07
3.30592e-10
-2.06798e-08
1.96694e-08
1.70963e-06
-1.72713e-06
1.73403e-06
-8.86167e-08
8.172e-08
-1.73821e-06
1.73856e-06
-9.01186e-08
8.97798e-08
-1.73465e-06
1.72701e-06
-7.47875e-08
8.24347e-08
-1.71595e-06
1.70272e-06
-5.72861e-08
7.05233e-08
-1.68753e-06
1.67171e-06
-4.47898e-08
6.06186e-08
-1.65512e-06
1.63883e-06
-3.6664e-08
5.29565e-08
-1.62244e-06
1.60678e-06
-3.10525e-08
4.67192e-08
-1.59131e-06
1.57671e-06
-2.67175e-08
4.13159e-08
-1.56242e-06
1.54903e-06
-2.31037e-08
3.65073e-08
-1.53596e-06
1.52375e-06
-1.99914e-08
3.22045e-08
-1.51189e-06
1.50083e-06
-1.72891e-08
2.83499e-08
-1.49011e-06
1.48015e-06
-1.49094e-08
2.48759e-08
-1.47052e-06
1.4616e-06
-1.27816e-08
2.17044e-08
-1.45301e-06
1.4451e-06
-1.08185e-08
1.87311e-08
-1.43755e-06
1.43065e-06
-8.88605e-09
1.57878e-08
-1.42415e-06
1.41833e-06
-6.70811e-09
1.25278e-08
-1.41303e-06
1.40845e-06
-3.2766e-09
7.86306e-09
-1.82257e-08
1.66468e-08
1.83287e-06
-1.83967e-06
1.84509e-06
-7.5299e-08
6.98778e-08
-1.85007e-06
1.85455e-06
-8.5477e-08
8.10027e-08
-1.85816e-06
1.86062e-06
-8.18803e-08
7.94217e-08
-1.86213e-06
1.86276e-06
-7.31246e-08
7.24945e-08
-1.86269e-06
1.86203e-06
-6.5532e-08
6.6194e-08
-1.86085e-06
1.85925e-06
-5.94676e-08
6.10666e-08
-1.85722e-06
1.85485e-06
-5.42971e-08
5.66694e-08
-1.85207e-06
1.84903e-06
-4.95315e-08
5.25811e-08
-1.84561e-06
1.84198e-06
-4.50132e-08
4.86437e-08
-1.83803e-06
1.83393e-06
-4.07287e-08
4.48278e-08
-1.82956e-06
1.82512e-06
-3.66845e-08
4.11292e-08
-1.82046e-06
1.8158e-06
-3.28665e-08
3.75294e-08
-1.81098e-06
1.80623e-06
-2.92353e-08
3.39885e-08
-1.80138e-06
1.79667e-06
-2.57074e-08
3.04226e-08
-1.79193e-06
1.78739e-06
-2.21161e-08
2.6661e-08
-1.78289e-06
1.77864e-06
-1.8098e-08
2.23493e-08
-1.77447e-06
1.77044e-06
-1.27047e-08
1.67409e-08
-1.51402e-08
1.38434e-08
1.964e-06
-1.96903e-06
1.9736e-06
-6.51658e-08
6.06006e-08
-1.9778e-06
1.98172e-06
-7.69859e-08
7.30672e-08
-1.98527e-06
1.98814e-06
-7.66954e-08
7.38261e-08
-1.99049e-06
1.99233e-06
-7.10063e-08
6.91674e-08
-1.99384e-06
1.99506e-06
-6.55026e-08
6.42942e-08
-1.99608e-06
1.99692e-06
-6.08859e-08
6.0049e-08
-1.99764e-06
1.99823e-06
-5.6875e-08
5.62886e-08
-1.99872e-06
1.99911e-06
-5.31293e-08
5.27464e-08
-1.99941e-06
1.99961e-06
-4.95115e-08
4.93098e-08
-1.99973e-06
1.99977e-06
-4.59893e-08
4.59504e-08
-1.99974e-06
1.99964e-06
-4.25508e-08
4.26548e-08
-1.99947e-06
1.99925e-06
-3.9169e-08
3.93933e-08
-1.99897e-06
1.99865e-06
-3.57953e-08
3.61142e-08
-1.99829e-06
1.99791e-06
-3.23368e-08
3.27217e-08
-1.9975e-06
1.99707e-06
-2.86168e-08
2.90439e-08
-1.99662e-06
1.99613e-06
-2.43036e-08
2.47908e-08
-1.99555e-06
1.99481e-06
-1.88413e-08
1.95839e-08
-1.26403e-08
1.15821e-08
2.10466e-06
-2.1086e-06
2.11271e-06
-5.64081e-08
5.2298e-08
-2.11664e-06
2.1203e-06
-6.94325e-08
6.57692e-08
-2.1237e-06
2.12657e-06
-7.10545e-08
6.81878e-08
-2.12904e-06
2.1311e-06
-6.72636e-08
6.52119e-08
-2.13291e-06
2.13447e-06
-6.29103e-08
6.13492e-08
-2.1359e-06
2.13719e-06
-5.89606e-08
5.76746e-08
-2.13841e-06
2.13954e-06
-5.53863e-08
5.42678e-08
-2.14061e-06
2.14161e-06
-5.19856e-08
5.09889e-08
-2.14258e-06
2.14348e-06
-4.86674e-08
4.77687e-08
-2.14436e-06
2.14518e-06
-4.54082e-08
4.45891e-08
-2.14598e-06
2.14674e-06
-4.21951e-08
4.14381e-08
-2.14749e-06
2.14821e-06
-3.8998e-08
3.82864e-08
-2.14892e-06
2.1496e-06
-3.5765e-08
3.50837e-08
-2.15029e-06
2.15095e-06
-3.24024e-08
3.17419e-08
-2.15162e-06
2.15225e-06
-2.87509e-08
2.8119e-08
-2.15287e-06
2.15341e-06
-2.45698e-08
2.40268e-08
-2.15386e-06
2.15414e-06
-1.96214e-08
1.93393e-08
-1.05858e-08
9.70648e-09
2.25548e-06
-2.25864e-06
2.2623e-06
-4.85404e-08
4.48867e-08
-2.266e-06
2.26951e-06
-6.23036e-08
5.87891e-08
-2.27284e-06
2.27573e-06
-6.5409e-08
6.25207e-08
-2.27829e-06
2.28048e-06
-6.31623e-08
6.0974e-08
-2.28246e-06
2.2842e-06
-5.97479e-08
5.80071e-08
-2.28583e-06
2.28732e-06
-5.63259e-08
5.48419e-08
-2.28875e-06
2.29008e-06
-5.30706e-08
5.17405e-08
-2.29138e-06
2.29261e-06
-4.9899e-08
4.86762e-08
-2.29381e-06
2.29496e-06
-4.67632e-08
4.56231e-08
-2.29609e-06
2.29716e-06
-4.36504e-08
4.25757e-08
-2.29824e-06
2.29926e-06
-4.05507e-08
3.95262e-08
-2.30029e-06
2.30128e-06
-3.74361e-08
3.6449e-08
-2.30227e-06
2.30323e-06
-3.42592e-08
3.33006e-08
-2.3042e-06
2.30513e-06
-3.0939e-08
3.00095e-08
-2.30606e-06
2.30694e-06
-2.73534e-08
2.64748e-08
-2.30779e-06
2.30856e-06
-2.33614e-08
2.2599e-08
-2.30923e-06
2.30976e-06
-1.8916e-08
1.83919e-08
-8.87708e-09
8.14425e-09
2.41713e-06
-2.41968e-06
2.42287e-06
-4.15772e-08
3.83835e-08
-2.42628e-06
2.42962e-06
-5.54737e-08
5.21412e-08
-2.43286e-06
2.43576e-06
-5.97199e-08
5.68237e-08
-2.4384e-06
2.44071e-06
-5.87963e-08
5.6485e-08
-2.44284e-06
2.44474e-06
-5.62474e-08
5.43521e-08
-2.44653e-06
2.44817e-06
-5.33295e-08
5.16903e-08
-2.44976e-06
2.45124e-06
-5.03781e-08
4.88974e-08
-2.45269e-06
2.45406e-06
-4.74175e-08
4.60463e-08
-2.45542e-06
2.45671e-06
-4.44437e-08
4.31557e-08
-2.45799e-06
2.45922e-06
-4.14587e-08
4.02366e-08
-2.46044e-06
2.46161e-06
-3.8458e-08
3.72884e-08
-2.46278e-06
2.46391e-06
-3.54188e-08
3.42923e-08
-2.46504e-06
2.46613e-06
-3.23027e-08
3.12158e-08
-2.46722e-06
2.46826e-06
-2.90479e-08
2.8008e-08
-2.46929e-06
2.47026e-06
-2.55743e-08
2.46087e-08
-2.47119e-06
2.47202e-06
-2.18198e-08
2.09863e-08
-2.47278e-06
2.4734e-06
-1.78305e-08
1.72099e-08
-7.45184e-09
6.8392e-09
2.59041e-06
-2.59258e-06
2.59535e-06
-3.55076e-08
3.27418e-08
-2.59843e-06
2.60154e-06
-4.90276e-08
4.59257e-08
-2.60464e-06
2.60749e-06
-5.40389e-08
5.11887e-08
-2.61016e-06
2.61256e-06
-5.42031e-08
5.18065e-08
-2.61481e-06
2.61684e-06
-5.24511e-08
5.0422e-08
-2.61877e-06
2.62055e-06
-5.00348e-08
4.82544e-08
-2.62228e-06
2.6239e-06
-4.73985e-08
4.57823e-08
-2.62549e-06
2.62699e-06
-4.46565e-08
4.31566e-08
-2.62847e-06
2.62989e-06
-4.18489e-08
4.04381e-08
-2.63129e-06
2.63263e-06
-3.8996e-08
3.7657e-08
-2.63397e-06
2.63525e-06
-3.6102e-08
3.4823e-08
-2.63653e-06
2.63775e-06
-3.31523e-08
3.19268e-08
-2.63898e-06
2.64015e-06
-3.01207e-08
2.8949e-08
-2.64132e-06
2.64243e-06
-2.69672e-08
2.58607e-08
-2.64351e-06
2.64453e-06
-2.36494e-08
2.26359e-08
-2.6455e-06
2.64638e-06
-2.0159e-08
1.92846e-08
-2.64718e-06
2.64786e-06
-1.65769e-08
1.58931e-08
-6.25895e-09
5.74433e-09
2.77622e-06
-2.77791e-06
2.7803e-06
-3.02564e-08
2.78679e-08
-2.78307e-06
2.78593e-06
-4.30465e-08
4.01919e-08
-2.78884e-06
2.7916e-06
-4.84761e-08
4.57233e-08
-2.79425e-06
2.79668e-06
-4.94688e-08
4.70421e-08
-2.79899e-06
2.80112e-06
-4.84093e-08
4.62858e-08
-2.80316e-06
2.80506e-06
-4.64729e-08
4.4576e-08
-2.80691e-06
2.80865e-06
-4.41594e-08
4.24238e-08
-2.81036e-06
2.81197e-06
-4.16485e-08
4.00329e-08
-2.81357e-06
2.8151e-06
-3.90192e-08
3.74983e-08
-2.81661e-06
2.81805e-06
-3.6311e-08
3.4869e-08
-2.81949e-06
2.82086e-06
-3.35394e-08
3.21664e-08
-2.82223e-06
2.82354e-06
-3.07005e-08
2.93926e-08
-2.82484e-06
2.82608e-06
-2.77819e-08
2.65424e-08
-2.82731e-06
2.82847e-06
-2.47647e-08
2.36066e-08
-2.8296e-06
2.83066e-06
-2.16368e-08
2.05849e-08
-2.83167e-06
2.83258e-06
-1.84212e-08
1.751e-08
-2.83342e-06
2.83416e-06
-1.52043e-08
1.44653e-08
-5.25521e-09
4.81995e-09
2.97534e-06
-2.97684e-06
2.9789e-06
-2.57209e-08
2.36552e-08
-2.98138e-06
2.984e-06
-3.75505e-08
3.49374e-08
-2.98672e-06
2.98936e-06
-4.31199e-08
4.04903e-08
-2.99194e-06
2.99436e-06
-4.46987e-08
4.22853e-08
-2.9967e-06
2.99888e-06
-4.42033e-08
4.20276e-08
-3.00099e-06
3.00298e-06
-4.26979e-08
4.0718e-08
-3.00492e-06
3.00675e-06
-4.0697e-08
3.88671e-08
-3.00855e-06
3.01027e-06
-3.84216e-08
3.67095e-08
-3.01196e-06
3.01358e-06
-3.59802e-08
3.43652e-08
-3.01519e-06
3.01672e-06
-3.34299e-08
3.18992e-08
-3.01824e-06
3.0197e-06
-3.07983e-08
2.93447e-08
-3.02114e-06
3.02252e-06
-2.80929e-08
2.67151e-08
-3.02389e-06
3.02519e-06
-2.53151e-08
2.40184e-08
-3.02647e-06
3.02767e-06
-2.24645e-08
2.12618e-08
-3.02885e-06
3.02994e-06
-1.95501e-08
1.84621e-08
-3.03098e-06
3.03193e-06
-1.66106e-08
1.56617e-08
-3.03282e-06
3.03361e-06
-1.37247e-08
1.29331e-08
-4.40472e-09
4.03394e-09
3.18877e-06
-3.19004e-06
3.19184e-06
-2.17949e-08
2.0001e-08
-3.19406e-06
3.19644e-06
-3.25227e-08
3.01359e-08
-3.19898e-06
3.20148e-06
-3.80115e-08
3.55136e-08
-3.20399e-06
3.20636e-06
-3.99688e-08
3.75938e-08
-3.2087e-06
3.2109e-06
-3.99111e-08
3.77136e-08
-3.21306e-06
3.21509e-06
-3.8775e-08
3.67411e-08
-3.2171e-06
3.219e-06
-3.70622e-08
3.51636e-08
-3.22088e-06
3.22267e-06
-3.5016e-08
3.32298e-08
-3.22444e-06
3.22613e-06
-3.27657e-08
3.10764e-08
-3.22781e-06
3.22942e-06
-3.03829e-08
2.87813e-08
-3.23101e-06
3.23253e-06
-2.79063e-08
2.63881e-08
-3.23404e-06
3.23547e-06
-2.53544e-08
2.39206e-08
-3.23689e-06
3.23824e-06
-2.27411e-08
2.13982e-08
-3.23956e-06
3.2408e-06
-2.008e-08
1.88399e-08
-3.24201e-06
3.24313e-06
-1.73937e-08
1.62725e-08
-3.24421e-06
3.2452e-06
-1.47259e-08
1.37399e-08
-3.24613e-06
3.24697e-06
-1.2143e-08
1.1302e-08
-3.72973e-09
3.45217e-09
2.87068e-06
-2.87159e-06
2.87292e-06
-1.83805e-08
1.70529e-08
-2.8746e-06
2.87645e-06
-2.79304e-08
2.60862e-08
-2.87845e-06
2.88045e-06
-3.31627e-08
3.11647e-08
-2.88248e-06
2.88444e-06
-3.53214e-08
3.3362e-08
-2.8864e-06
2.88825e-06
-3.55855e-08
3.37309e-08
-2.89009e-06
2.89183e-06
-3.4756e-08
3.30139e-08
-2.89356e-06
2.8952e-06
-3.3302e-08
3.16617e-08
-2.89683e-06
2.89838e-06
-3.14739e-08
2.99234e-08
-2.89993e-06
2.9014e-06
-2.94139e-08
2.79445e-08
-2.90286e-06
2.90425e-06
-2.72048e-08
2.58115e-08
-2.90564e-06
2.90696e-06
-2.48949e-08
2.35761e-08
-2.90827e-06
2.90951e-06
-2.25126e-08
2.12705e-08
-2.91074e-06
2.9119e-06
-2.00817e-08
1.89219e-08
-2.91304e-06
2.91411e-06
-1.76257e-08
1.65569e-08
-2.91515e-06
2.91612e-06
-1.5174e-08
1.42063e-08
-2.91706e-06
2.91792e-06
-1.27696e-08
1.19117e-08
-2.91873e-06
2.91948e-06
-1.04664e-08
9.72196e-09
-3.14631e-09
2.8684e-09
3.49938e-06
-3.50031e-06
3.50168e-06
-1.583e-08
1.44671e-08
-3.50343e-06
3.50539e-06
-2.43598e-08
2.24038e-08
-3.50754e-06
3.50972e-06
-2.92671e-08
2.70836e-08
-3.51198e-06
3.51418e-06
-3.14769e-08
2.92783e-08
-3.51639e-06
3.51852e-06
-3.19293e-08
2.98067e-08
-3.52064e-06
3.52266e-06
-3.13109e-08
2.92908e-08
-3.52467e-06
3.52659e-06
-3.00522e-08
2.81354e-08
-3.5285e-06
3.53032e-06
-2.83992e-08
2.658e-08
-3.53213e-06
3.53386e-06
-2.64988e-08
2.47722e-08
-3.53557e-06
3.53721e-06
-2.44407e-08
2.28037e-08
-3.53884e-06
3.54039e-06
-2.22796e-08
2.07322e-08
-3.54192e-06
3.54338e-06
-2.00507e-08
1.85964e-08
-3.54481e-06
3.54617e-06
-1.77841e-08
1.6429e-08
-3.5475e-06
3.54875e-06
-1.55087e-08
1.42608e-08
-3.54997e-06
3.5511e-06
-1.32562e-08
1.21238e-08
-3.5522e-06
3.55321e-06
-1.10665e-08
1.00557e-08
-3.55418e-06
3.55507e-06
-8.98371e-09
8.09554e-09
-2.56324e-09
2.2872e-09
4.26568e-06
-4.26661e-06
4.268e-06
-1.32212e-08
1.18422e-08
-4.26979e-06
4.27184e-06
-2.05881e-08
1.85471e-08
-4.27412e-06
4.27647e-06
-2.50258e-08
2.26755e-08
-4.27893e-06
4.28137e-06
-2.71777e-08
2.47449e-08
-4.28385e-06
4.28625e-06
-2.77574e-08
2.53579e-08
-4.28866e-06
4.29098e-06
-2.73266e-08
2.50093e-08
-4.2933e-06
4.29552e-06
-2.62637e-08
2.40451e-08
-4.29773e-06
4.29985e-06
-2.47997e-08
2.26843e-08
-4.30196e-06
4.30397e-06
-2.3081e-08
2.10694e-08
-4.30597e-06
4.30788e-06
-2.12004e-08
1.92935e-08
-4.30978e-06
4.31158e-06
-1.9218e-08
1.74181e-08
-4.31336e-06
4.31505e-06
-1.71747e-08
1.54862e-08
-4.31671e-06
4.31829e-06
-1.51054e-08
1.35344e-08
-4.31983e-06
4.32128e-06
-1.3042e-08
1.15953e-08
-4.32269e-06
4.32401e-06
-1.10163e-08
9.69978e-09
-4.32528e-06
4.32647e-06
-9.0635e-09
7.88008e-09
-4.32761e-06
4.32866e-06
-7.21847e-09
6.16647e-09
-1.98498e-09
1.71211e-09
5.19997e-06
-5.2008e-06
5.20219e-06
-1.05889e-08
9.20802e-09
-5.20401e-06
5.20612e-06
-1.66655e-08
1.45624e-08
-5.2085e-06
5.211e-06
-2.0476e-08
1.79795e-08
-5.21366e-06
5.21632e-06
-2.24365e-08
1.97796e-08
-5.21905e-06
5.22174e-06
-2.3056e-08
2.0377e-08
-5.22445e-06
5.22708e-06
-2.27691e-08
2.01407e-08
-5.22973e-06
5.23227e-06
-2.18898e-08
1.93476e-08
-5.23482e-06
5.23726e-06
-2.06235e-08
1.81853e-08
-5.23969e-06
5.24202e-06
-1.91076e-08
1.67829e-08
-5.24433e-06
5.24654e-06
-1.74335e-08
1.52288e-08
-5.24872e-06
5.2508e-06
-1.56634e-08
1.35842e-08
-5.25286e-06
5.25481e-06
-1.38415e-08
1.18934e-08
-5.25673e-06
5.25854e-06
-1.2005e-08
1.01937e-08
-5.26032e-06
5.26199e-06
-1.01863e-08
8.51669e-09
-5.26362e-06
5.26515e-06
-8.41535e-09
6.8904e-09
-5.26663e-06
5.26802e-06
-6.72138e-09
5.341e-09
-5.26935e-06
5.27059e-06
-5.13092e-09
3.89083e-09
-1.41305e-09
1.14199e-09
6.33857e-06
-6.33959e-06
6.34097e-06
-7.95616e-09
6.57669e-09
-6.34282e-06
6.34498e-06
-1.26312e-08
1.04762e-08
-6.34746e-06
6.35009e-06
-1.56547e-08
1.30242e-08
-6.35292e-06
6.3558e-06
-1.72727e-08
1.43991e-08
-6.35879e-06
6.36176e-06
-1.78217e-08
1.48613e-08
-6.36478e-06
6.36774e-06
-1.76135e-08
1.46623e-08
-6.37072e-06
6.37361e-06
-1.68903e-08
1.40046e-08
-6.37651e-06
6.3793e-06
-1.58208e-08
1.30345e-08
-6.38208e-06
6.38475e-06
-1.45248e-08
1.18585e-08
-6.38741e-06
6.38994e-06
-1.30859e-08
1.05532e-08
-6.39246e-06
6.39485e-06
-1.15632e-08
9.17376e-09
-6.39721e-06
6.39945e-06
-1.00002e-08
7.76135e-09
-6.40166e-06
6.40374e-06
-8.43319e-09
6.35001e-09
-6.40579e-06
6.40772e-06
-6.89234e-09
4.9678e-09
-6.4096e-06
6.41137e-06
-5.40366e-09
3.6381e-09
-6.41309e-06
6.4147e-06
-3.99044e-09
2.381e-09
-6.41627e-06
6.41773e-06
-2.67183e-09
1.21217e-09
-8.42217e-10
5.66523e-10
7.72728e-06
-7.7274e-06
7.72879e-06
-5.32167e-09
3.9272e-09
-7.73068e-06
7.7329e-06
-8.49493e-09
6.27148e-09
-7.73549e-06
7.73827e-06
-1.05763e-08
7.79817e-09
-7.7413e-06
7.7444e-06
-1.16939e-08
8.59041e-09
-7.74767e-06
7.75093e-06
-1.20468e-08
8.78836e-09
-7.75429e-06
7.75759e-06
-1.18352e-08
8.53914e-09
-7.76094e-06
7.7642e-06
-1.12257e-08
7.96917e-09
-7.76749e-06
7.77065e-06
-1.0342e-08
7.17588e-09
-7.77383e-06
7.77687e-06
-9.27673e-09
6.23419e-09
-7.77991e-06
7.78281e-06
-8.09795e-09
5.20061e-09
-7.78568e-06
7.78842e-06
-6.85573e-09
4.11779e-09
-7.79113e-06
7.7937e-06
-5.58806e-09
3.0187e-09
-7.79624e-06
7.79864e-06
-4.32603e-09
1.93025e-09
-7.80099e-06
7.80322e-06
-3.09503e-09
8.74202e-10
-7.80539e-06
7.80744e-06
-1.91583e-09
-1.31837e-10
-7.80945e-06
7.81133e-06
-8.05624e-10
-1.07383e-09
-7.81316e-06
7.81489e-06
2.22591e-10
-1.94167e-09
-2.5445e-10
-4.26539e-11
9.4193e-06
-9.42025e-06
9.42171e-06
-2.64e-09
1.17698e-09
-9.4237e-06
9.42607e-06
-4.20375e-09
1.83858e-09
-9.42884e-06
9.43185e-06
-5.1917e-09
2.18895e-09
-9.43515e-06
9.43856e-06
-5.65334e-09
2.24652e-09
-9.44217e-06
9.4458e-06
-5.68144e-09
2.05649e-09
-9.44956e-06
9.45327e-06
-5.37765e-09
1.67207e-09
-9.45705e-06
9.46074e-06
-4.83216e-09
1.14289e-09
-9.46447e-06
9.46808e-06
-4.11691e-09
5.11e-10
-9.4717e-06
9.47518e-06
-3.28885e-09
-1.88673e-10
-9.47866e-06
9.48198e-06
-2.39215e-09
-9.27633e-10
-9.48528e-06
9.48842e-06
-1.46109e-09
-1.68249e-09
-9.49154e-06
9.4945e-06
-5.22908e-10
-2.43365e-09
-9.49742e-06
9.50018e-06
4.00175e-10
-3.1649e-09
-9.50291e-06
9.50548e-06
1.29017e-09
-3.86295e-09
-9.50801e-06
9.5104e-06
2.13254e-09
-4.5168e-09
-9.51274e-06
9.51494e-06
2.91604e-09
-5.11827e-09
-9.5171e-06
9.51913e-06
3.63281e-09
-5.662e-09
3.97154e-10
-7.60877e-10
1.14824e-05
-1.14824e-05
1.14841e-05
2.20151e-10
-1.88823e-09
-1.14864e-05
1.14891e-05
4.26684e-10
-3.13298e-09
-1.14923e-05
1.14957e-05
6.97257e-10
-4.14627e-09
-1.14995e-05
1.15034e-05
1.03951e-09
-4.96605e-09
-1.15076e-05
1.15118e-05
1.45028e-09
-5.63918e-09
-1.15161e-05
1.15204e-05
1.92075e-09
-6.21011e-09
-1.15248e-05
1.15291e-05
2.4397e-09
-6.71408e-09
-1.15334e-05
1.15376e-05
2.99422e-09
-7.17359e-09
-1.15418e-05
1.15458e-05
3.57137e-09
-7.60253e-09
-1.15499e-05
1.15537e-05
4.15862e-09
-8.00785e-09
-1.15575e-05
1.15612e-05
4.74383e-09
-8.3911e-09
-1.15648e-05
1.15682e-05
5.31527e-09
-8.75e-09
-1.15716e-05
1.15749e-05
5.86283e-09
-9.08162e-09
-1.1578e-05
1.1581e-05
6.37776e-09
-9.3824e-09
-1.1584e-05
1.15868e-05
6.85234e-09
-9.64818e-09
-1.15895e-05
1.15921e-05
7.28103e-09
-9.87622e-09
-1.15947e-05
1.15971e-05
7.6604e-09
-1.00651e-08
1.04498e-09
-1.35168e-09
8.40631e-06
-8.40613e-06
8.40746e-06
3.59539e-09
-4.91981e-09
-8.40926e-06
8.41138e-06
5.88997e-09
-8.01415e-09
-8.41386e-06
8.41653e-06
7.641e-09
-1.03075e-08
-8.41944e-06
8.42244e-06
8.92211e-09
-1.19106e-08
-8.42558e-06
8.42873e-06
9.83668e-09
-1.29781e-08
-8.43197e-06
8.43514e-06
1.04873e-08
-1.36624e-08
-8.43837e-06
8.4415e-06
1.09585e-08
-1.4088e-08
-8.44465e-06
8.44769e-06
1.13094e-08
-1.43426e-08
-8.45073e-06
8.45364e-06
1.15811e-08
-1.4487e-08
-8.45653e-06
8.45929e-06
1.17995e-08
-1.45608e-08
-8.46204e-06
8.46465e-06
1.19795e-08
-1.45876e-08
-8.46723e-06
8.46968e-06
1.21276e-08
-1.45794e-08
-8.47211e-06
8.47441e-06
1.22473e-08
-1.4544e-08
-8.47667e-06
8.47882e-06
1.23395e-08
-1.44851e-08
-8.48094e-06
8.48294e-06
1.24032e-08
-1.44031e-08
-8.48491e-06
8.48677e-06
1.24379e-08
-1.42989e-08
-8.4886e-06
8.49034e-06
1.24438e-08
-1.41734e-08
1.6482e-09
-1.98082e-09
7.31733e-06
-7.31818e-06
7.31955e-06
6.3513e-09
-7.72196e-09
-7.32139e-06
7.32355e-06
1.02871e-08
-1.24384e-08
-7.32603e-06
7.32866e-06
1.31268e-08
-1.57559e-08
-7.33149e-06
7.33436e-06
1.50321e-08
-1.79006e-08
-7.33735e-06
7.34029e-06
1.62228e-08
-1.91648e-08
-7.34329e-06
7.34621e-06
1.69106e-08
-1.98223e-08
-7.34914e-06
7.35196e-06
1.72647e-08
-2.00863e-08
-7.35479e-06
7.35749e-06
1.74026e-08
-2.01014e-08
-7.36017e-06
7.36274e-06
1.74051e-08
-1.99651e-08
-7.36528e-06
7.36769e-06
1.73243e-08
-1.97394e-08
-7.37009e-06
7.37236e-06
1.71915e-08
-1.94611e-08
-7.3746e-06
7.37673e-06
1.70237e-08
-1.91504e-08
-7.37883e-06
7.38082e-06
1.68317e-08
-1.88201e-08
-7.38278e-06
7.38464e-06
1.66215e-08
-1.84774e-08
-7.38647e-06
7.38821e-06
1.63947e-08
-1.81246e-08
-7.38991e-06
7.39152e-06
1.61531e-08
-1.77638e-08
-7.39311e-06
7.39461e-06
1.58981e-08
-1.73968e-08
2.31181e-09
-2.69119e-09
6.37038e-06
-6.37131e-06
6.37283e-06
9.2556e-09
-1.07658e-08
-6.37482e-06
6.37712e-06
1.48091e-08
-1.71046e-08
-6.37972e-06
6.38242e-06
1.86035e-08
-2.1307e-08
-6.38528e-06
6.38813e-06
2.09552e-08
-2.38012e-08
-6.39104e-06
6.39387e-06
2.22503e-08
-2.5077e-08
-6.39672e-06
6.39944e-06
2.28374e-08
-2.55614e-08
-6.40216e-06
6.40475e-06
2.29785e-08
-2.55633e-08
-6.40731e-06
6.40974e-06
2.28465e-08
-2.52801e-08
-6.41215e-06
6.41444e-06
2.25544e-08
-2.48364e-08
-6.41669e-06
6.41883e-06
2.21722e-08
-2.43077e-08
-6.42094e-06
6.42294e-06
2.17411e-08
-2.37367e-08
-6.42491e-06
6.42677e-06
2.12827e-08
-2.31456e-08
-6.42861e-06
6.43035e-06
2.08114e-08
-2.25488e-08
-6.43206e-06
6.43368e-06
2.03348e-08
-2.1954e-08
-6.43528e-06
6.43679e-06
1.98553e-08
-2.13635e-08
-6.43827e-06
6.43968e-06
1.93754e-08
-2.07794e-08
-6.44106e-06
6.44237e-06
1.88968e-08
-2.02034e-08
3.07481e-09
-3.51836e-09
5.54544e-06
-5.54752e-06
5.54925e-06
1.24925e-08
-1.42227e-08
-5.5515e-06
5.55402e-06
1.96758e-08
-2.21932e-08
-5.55679e-06
5.55963e-06
2.42711e-08
-2.71068e-08
-5.56257e-06
5.56543e-06
2.68587e-08
-2.97207e-08
-5.56831e-06
5.57105e-06
2.80601e-08
-3.08e-08
-5.57376e-06
5.57633e-06
2.83946e-08
-3.09573e-08
-5.57885e-06
5.58123e-06
2.82216e-08
-3.05983e-08
-5.58356e-06
5.58577e-06
2.77622e-08
-2.99629e-08
-5.58793e-06
5.58997e-06
2.71504e-08
-2.919e-08
-5.59198e-06
5.59387e-06
2.64642e-08
-2.83572e-08
-5.59574e-06
5.5975e-06
2.57463e-08
-2.75051e-08
-5.59923e-06
5.60087e-06
2.50178e-08
-2.66529e-08
-5.60248e-06
5.604e-06
2.42925e-08
-2.58129e-08
-5.6055e-06
5.60692e-06
2.35775e-08
-2.49914e-08
-5.60831e-06
5.60962e-06
2.28746e-08
-2.41892e-08
-5.61092e-06
5.61214e-06
2.21855e-08
-2.34078e-08
-5.61335e-06
5.61448e-06
2.15116e-08
-2.26479e-08
3.96724e-09
-4.48054e-09
4.82851e-06
-4.82979e-06
4.83183e-06
1.62271e-08
-1.82576e-08
-4.83438e-06
4.83717e-06
2.50293e-08
-2.78113e-08
-4.84016e-06
4.84315e-06
3.02261e-08
-3.3211e-08
-4.84617e-06
4.84904e-06
3.27977e-08
-3.56716e-08
-4.85187e-06
4.85451e-06
3.36891e-08
-3.63328e-08
-4.85709e-06
4.85948e-06
3.36175e-08
-3.60119e-08
-4.86181e-06
4.86398e-06
3.30367e-08
-3.52044e-08
-4.86609e-06
4.86806e-06
3.22017e-08
-3.41746e-08
-4.86999e-06
4.8718e-06
3.12526e-08
-3.30593e-08
-4.87357e-06
4.87523e-06
3.02637e-08
-3.19263e-08
-4.87686e-06
4.8784e-06
2.92711e-08
-3.08062e-08
-4.87991e-06
4.88133e-06
2.82908e-08
-2.97107e-08
-4.88273e-06
4.88405e-06
2.73329e-08
-2.86476e-08
-4.88534e-06
4.88656e-06
2.64024e-08
-2.76205e-08
-4.88776e-06
4.88889e-06
2.54994e-08
-2.66282e-08
-4.89e-06
4.89105e-06
2.46244e-08
-2.56709e-08
-4.89208e-06
4.89305e-06
2.37778e-08
-2.47481e-08
4.98591e-09
-5.53304e-09
4.20355e-06
-4.20412e-06
4.20654e-06
2.06303e-08
-2.30479e-08
-4.20945e-06
4.2125e-06
3.09391e-08
-3.39893e-08
-4.21571e-06
4.21882e-06
3.64856e-08
-3.95987e-08
-4.22188e-06
4.22473e-06
3.87452e-08
-4.1589e-08
-4.22746e-06
4.22997e-06
3.91011e-08
-4.16055e-08
-4.23236e-06
4.23455e-06
3.84766e-08
-4.06665e-08
-4.23665e-06
4.23858e-06
3.74079e-08
-3.93407e-08
-4.24045e-06
4.24218e-06
3.61627e-08
-3.78915e-08
-4.24385e-06
4.24542e-06
3.48692e-08
-3.64337e-08
-4.24695e-06
4.24838e-06
3.35849e-08
-3.50124e-08
-4.24977e-06
4.25108e-06
3.23326e-08
-3.36415e-08
-4.25237e-06
4.25357e-06
3.11187e-08
-3.23218e-08
-4.25475e-06
4.25586e-06
2.99479e-08
-3.1055e-08
-4.25694e-06
4.25797e-06
2.88221e-08
-2.98415e-08
-4.25897e-06
4.25991e-06
2.7739e-08
-2.86782e-08
-4.26083e-06
4.2617e-06
2.66983e-08
-2.7564e-08
-4.26255e-06
4.26335e-06
2.56987e-08
-2.64971e-08
6.02017e-09
-6.45306e-09
3.65843e-06
-3.66148e-06
3.66437e-06
2.58832e-08
-2.87722e-08
-3.6676e-06
3.67089e-06
3.73903e-08
-4.06716e-08
-3.67426e-06
3.67744e-06
4.29832e-08
-4.61631e-08
-3.68047e-06
3.68322e-06
4.45948e-08
-4.73396e-08
-3.6858e-06
3.68811e-06
4.41931e-08
-4.65028e-08
-3.69027e-06
3.69222e-06
4.28892e-08
-4.48377e-08
-3.69406e-06
3.69574e-06
4.12779e-08
-4.29538e-08
-3.69734e-06
3.69881e-06
3.96097e-08
-4.10812e-08
-3.70023e-06
3.70155e-06
3.79793e-08
-3.9292e-08
-3.70282e-06
3.704e-06
3.64158e-08
-3.75983e-08
-3.70515e-06
3.70622e-06
3.49223e-08
-3.5993e-08
-3.70727e-06
3.70824e-06
3.34935e-08
-3.44648e-08
-3.70918e-06
3.71007e-06
3.21279e-08
-3.30095e-08
-3.71093e-06
3.71173e-06
3.08242e-08
-3.16245e-08
-3.71251e-06
3.71324e-06
2.95787e-08
-3.03051e-08
-3.71394e-06
3.71461e-06
2.83898e-08
-2.90497e-08
-3.71525e-06
3.71585e-06
2.72552e-08
-2.78551e-08
6.72581e-09
-6.79561e-09
3.18507e-06
-3.18781e-06
3.1912e-06
3.21429e-08
-3.5535e-08
-3.19468e-06
3.19814e-06
4.4287e-08
-4.77534e-08
-3.20164e-06
3.20484e-06
4.95786e-08
-5.27741e-08
-3.2078e-06
3.21042e-06
5.02102e-08
-5.28251e-08
-3.21281e-06
3.21491e-06
4.88646e-08
-5.09597e-08
-3.21682e-06
3.21851e-06
4.67914e-08
-4.84768e-08
-3.22007e-06
3.22145e-06
4.46062e-08
-4.59921e-08
-3.22275e-06
3.22392e-06
4.25111e-08
-4.36769e-08
-3.22502e-06
3.22602e-06
4.05501e-08
-4.1547e-08
-3.22696e-06
3.22782e-06
3.87162e-08
-3.95762e-08
-3.22864e-06
3.22939e-06
3.69912e-08
-3.7735e-08
-3.23009e-06
3.23074e-06
3.53572e-08
-3.59993e-08
-3.23135e-06
3.2319e-06
3.38067e-08
-3.43582e-08
-3.23242e-06
3.2329e-06
3.23357e-08
-3.28059e-08
-3.23334e-06
3.23374e-06
3.09389e-08
-3.13362e-08
-3.23411e-06
3.23445e-06
2.96145e-08
-2.99474e-08
-3.23476e-06
3.23504e-06
2.83593e-08
-2.86364e-08
6.43716e-09
-4.71311e-09
2.77128e-06
-2.77614e-06
2.77999e-06
3.93948e-08
-4.32454e-08
-2.78375e-06
2.78758e-06
5.16134e-08
-5.54409e-08
-2.79134e-06
2.79465e-06
5.62353e-08
-5.95401e-08
-2.7976e-06
2.80009e-06
5.55702e-08
-5.80569e-08
-2.80224e-06
2.80401e-06
5.30741e-08
-5.48393e-08
-2.8055e-06
2.80671e-06
5.00969e-08
-5.1297e-08
-2.8077e-06
2.80849e-06
4.72513e-08
-4.80371e-08
-2.80913e-06
2.80961e-06
4.46719e-08
-4.51533e-08
-2.80998e-06
2.81023e-06
4.23402e-08
-4.2589e-08
-2.81039e-06
2.81045e-06
4.02071e-08
-4.02681e-08
-2.81043e-06
2.81033e-06
3.82296e-08
-3.81314e-08
-2.81016e-06
2.80993e-06
3.6375e-08
-3.61372e-08
-2.80962e-06
2.80926e-06
3.46281e-08
-3.42654e-08
-2.80883e-06
2.80836e-06
3.29809e-08
-3.25053e-08
-2.80782e-06
2.80725e-06
3.1426e-08
-3.08485e-08
-2.80661e-06
2.80594e-06
2.99619e-08
-2.92941e-08
-2.80522e-06
2.80448e-06
2.85874e-08
-2.78431e-08
9.71371e-10
8.60331e-10
2.41117e-06
-2.41745e-06
2.42318e-06
4.79472e-08
-5.36697e-08
-2.42858e-06
2.4336e-06
5.99781e-08
-6.49903e-08
-2.43778e-06
2.44084e-06
6.31369e-08
-6.61909e-08
-2.44298e-06
2.44417e-06
6.04719e-08
-6.16527e-08
-2.4445e-06
2.44405e-06
5.61934e-08
-5.57381e-08
-2.44289e-06
2.44115e-06
5.18185e-08
-5.0079e-08
-2.43885e-06
2.43616e-06
4.79394e-08
-4.52417e-08
-2.43302e-06
2.42962e-06
4.45922e-08
-4.11869e-08
-2.42586e-06
2.42193e-06
4.16643e-08
-3.77327e-08
-2.4177e-06
2.41338e-06
3.90434e-08
-3.47197e-08
-2.40881e-06
2.40421e-06
3.66503e-08
-3.20386e-08
-2.39939e-06
2.39458e-06
3.44323e-08
-2.96183e-08
-2.38959e-06
2.38465e-06
3.23643e-08
-2.74192e-08
-2.37956e-06
2.37454e-06
3.04336e-08
-2.54155e-08
-2.36941e-06
2.36437e-06
2.86298e-08
-2.35879e-08
-2.35923e-06
2.3542e-06
2.69518e-08
-2.19271e-08
-2.3491e-06
2.34413e-06
2.54045e-08
-2.04342e-08
2.95593e-08
2.07144e-06
-2.14045e-06
2.13881e-06
6.08925e-08
-5.92485e-08
-2.13452e-06
2.12668e-06
7.04205e-08
-6.25711e-08
-2.11528e-06
2.10085e-06
6.67997e-08
-5.23653e-08
-2.08327e-06
2.0639e-06
5.80568e-08
-3.86848e-08
-2.04287e-06
2.02178e-06
4.8869e-08
-2.77757e-08
-2.00031e-06
1.97975e-06
4.10521e-08
-2.04876e-08
-1.95948e-06
1.9405e-06
3.50084e-08
-1.60263e-08
-1.92207e-06
1.90496e-06
3.04328e-08
-1.33171e-08
-1.88841e-06
1.87308e-06
2.68998e-08
-1.15635e-08
-1.85825e-06
1.84448e-06
2.40732e-08
-1.03048e-08
-1.83113e-06
1.81872e-06
2.17288e-08
-9.30531e-09
-1.80664e-06
1.79538e-06
1.9724e-08
-8.45433e-09
-1.7844e-06
1.77413e-06
1.79767e-08
-7.7047e-09
-1.7641e-06
1.7547e-06
1.64367e-08
-7.03376e-09
-1.7455e-06
1.73687e-06
1.50691e-08
-6.43213e-09
-1.72841e-06
1.72045e-06
1.38562e-08
-5.89844e-09
-1.71264e-06
1.7053e-06
1.28029e-08
-5.45587e-09
1.22519e-09
-5.4245e-09
4.2226e-09
-5.19836e-09
1.06595e-08
-5.41429e-09
-1.63767e-08
2.17362e-08
-5.3153e-09
-2.62163e-08
2.97368e-08
-3.47598e-09
-3.21114e-08
3.34294e-08
-1.27476e-09
-3.36431e-08
3.29011e-08
7.83977e-10
-3.12299e-08
2.88005e-08
2.47071e-09
-2.56601e-08
2.19485e-08
3.75323e-09
-1.76904e-08
1.29975e-08
4.7354e-09
-7.87815e-09
2.41952e-09
5.50234e-09
3.38933e-09
-9.50221e-09
6.15619e-09
1.59374e-08
-2.26459e-08
6.74995e-09
2.96372e-08
-3.68948e-08
7.29731e-09
4.44265e-08
-5.2199e-08
7.81054e-09
6.02437e-08
-6.85371e-08
8.32964e-09
7.70615e-08
-8.5843e-08
8.81575e-09
9.48558e-08
-1.04077e-07
9.25367e-09
1.13529e-07
-1.23171e-07
9.67187e-09
1.33021e-07
-1.43073e-07
1.00806e-08
1.53251e-07
-1.63633e-07
1.04081e-08
1.74116e-07
-1.84787e-07
1.06954e-08
1.95559e-07
-2.06428e-07
1.08906e-08
2.17407e-07
-2.28456e-07
1.10691e-08
2.39596e-07
-2.50777e-07
1.11998e-08
2.6203e-07
-2.73353e-07
1.13397e-08
2.84627e-07
-2.96005e-07
1.13919e-08
3.07308e-07
-3.18706e-07
1.14078e-08
3.30002e-07
-3.41395e-07
1.13969e-08
3.52661e-07
-3.64022e-07
1.1358e-08
3.75237e-07
-3.86552e-07
1.13025e-08
3.977e-07
-4.08951e-07
1.12263e-08
4.20015e-07
-4.31185e-07
1.11337e-08
4.42141e-07
-4.53199e-07
1.10135e-08
4.64019e-07
-4.74911e-07
1.08511e-08
4.85535e-07
-4.96074e-07
1.05216e-08
5.06522e-07
-5.16698e-07
1.02071e-08
5.26819e-07
-5.36546e-07
9.83461e-09
5.46184e-07
-5.55564e-07
9.5798e-09
5.64861e-07
-5.73893e-07
9.30591e-09
5.82935e-07
-5.91732e-07
9.07953e-09
6.00812e-07
-6.09804e-07
9.16494e-09
6.19077e-07
-6.29183e-07
1.00604e-08
6.40489e-07
-6.55461e-07
1.46283e-08
6.65426e-07
-6.69273e-07
3.21509e-09
6.76269e-07
-6.86346e-07
9.45493e-09
6.9689e-07
-7.08266e-07
1.0988e-08
7.19003e-07
-7.27904e-07
8.86926e-09
7.28966e-07
-7.3494e-07
6.17446e-09
7.49569e-07
-7.62308e-07
1.29826e-08
7.72063e-07
-7.80213e-07
8.27483e-09
7.89009e-07
-7.99156e-07
1.00597e-08
8.12594e-07
-8.3025e-07
1.73595e-08
8.38714e-07
-8.40167e-07
1.04639e-09
8.45153e-07
-8.41296e-07
-4.07349e-09
8.42472e-07
-8.53823e-07
1.13631e-08
8.6531e-07
-8.75581e-07
1.04141e-08
8.8415e-07
-8.91851e-07
7.91836e-09
9.00611e-07
-9.10756e-07
1.04141e-08
9.1935e-07
-9.23339e-07
4.25751e-09
9.27217e-07
-9.33603e-07
6.56342e-09
9.4152e-07
-9.51959e-07
1.04386e-08
9.67274e-07
-9.72749e-07
5.26621e-09
9.65936e-07
-9.65883e-07
-3.47709e-10
9.72332e-07
-9.81625e-07
9.08597e-09
9.90691e-07
-9.92365e-07
1.64846e-09
1.00419e-06
-1.0186e-06
1.45558e-08
1.01876e-06
-1.02101e-06
2.48268e-09
1.02474e-06
-1.02892e-06
4.37744e-09
1.03349e-06
-1.03808e-06
4.71839e-09
1.04276e-06
-1.04738e-06
4.68532e-09
1.05196e-06
-1.05647e-06
4.54035e-09
1.06089e-06
-1.06524e-06
4.35708e-09
1.06947e-06
-1.07363e-06
4.15696e-09
1.07765e-06
-1.08138e-06
3.72731e-09
1.08519e-06
-1.08895e-06
3.74098e-09
1.09257e-06
-1.09614e-06
3.5537e-09
1.09958e-06
-1.10295e-06
3.35354e-09
1.10597e-06
-1.10916e-06
3.16329e-09
1.11223e-06
-1.11527e-06
3.00741e-09
1.11817e-06
-1.12082e-06
2.62042e-09
1.12356e-06
-1.1263e-06
2.70119e-09
1.12891e-06
-1.13129e-06
2.34364e-09
1.13378e-06
-1.13629e-06
2.46007e-09
1.13869e-06
-1.14089e-06
2.13411e-09
1.14319e-06
-1.14557e-06
2.2749e-09
1.14759e-06
-1.14992e-06
2.20433e-09