/*--------------------------------*- C++ -*----------------------------------*\
  =========                 |
  \\      /  F ield         | OpenFOAM: The Open Source CFD Toolbox
   \\    /   O peration     | Website:  https://openfoam.org
    \\  /    A nd           | Version:  7
     \\/     M anipulation  |
\*---------------------------------------------------------------------------*/
FoamFile
{
    version     2.0;
    format      ascii;
    class       volVectorField;
    location    "300";
    object      U;
}
// * * * * * * * * * * * * * * * * * * * * * * * * * * * * * * * * * * * * * //

dimensions      [0 1 -1 0 0 0 0];

internalField   nonuniform List<vector> 
48900
(
(10.1555 0.422383 0)
(8.81654 -0.790497 0)
(7.84625 -0.155328 0)
(7.1257 -0.00359004 0)
(6.67567 0.0204904 0)
(6.39149 0.0216627 0)
(6.18378 0.0194594 0)
(6.01201 0.0167534 0)
(5.86337 0.0141142 0)
(5.73434 0.0118078 0)
(5.62336 0.00990722 0)
(5.52846 0.00838305 0)
(5.44788 0.00710039 0)
(5.38003 0.00597574 0)
(5.32374 0.00491037 0)
(5.27855 0.00376103 0)
(5.24544 0.00229287 0)
(5.22832 0.00203353 0)
(9.99732 0.025841 0)
(10.1331 0.0871087 0)
(10.179 0.0999027 0)
(10.1357 0.105431 0)
(10.0077 0.0953272 0)
(9.8318 0.0845026 0)
(9.63957 0.0755968 0)
(9.44958 0.0681355 0)
(9.27029 0.0615635 0)
(9.10468 0.0556594 0)
(8.95326 0.0503318 0)
(8.81573 0.0455172 0)
(8.69149 0.0410902 0)
(8.57988 0.0369229 0)
(8.48038 0.03282 0)
(8.39278 0.0284362 0)
(8.31745 0.0229916 0)
(8.25599 0.0137744 0)
(10.0006 0.0207736 0)
(10.061 0.0953153 0)
(10.1158 0.115619 0)
(10.155 0.115768 0)
(10.1714 0.108922 0)
(10.1706 0.102918 0)
(10.1579 0.0984356 0)
(10.1358 0.094733 0)
(10.1059 0.0911157 0)
(10.0689 0.0873116 0)
(10.0262 0.0832802 0)
(9.97892 0.0790362 0)
(9.92855 0.0745737 0)
(9.87646 0.0698223 0)
(9.82408 0.0646019 0)
(9.77284 0.0585069 0)
(9.7242 0.0505902 0)
(9.67916 0.0384716 0)
(10.0006 0.018436 0)
(10.044 0.0828157 0)
(10.0872 0.10259 0)
(10.123 0.107363 0)
(10.1468 0.104249 0)
(10.1621 0.100627 0)
(10.1724 0.0977146 0)
(10.1796 0.095281 0)
(10.1846 0.0929054 0)
(10.1876 0.0903871 0)
(10.1889 0.087662 0)
(10.1886 0.0846958 0)
(10.1869 0.081424 0)
(10.1841 0.0777161 0)
(10.1804 0.0733248 0)
(10.1762 0.0677842 0)
(10.1716 0.0602136 0)
(10.1658 0.0492076 0)
(10.0005 0.0152646 0)
(10.0336 0.0713831 0)
(10.0714 0.0926129 0)
(10.1034 0.0993785 0)
(10.1267 0.0985183 0)
(10.1437 0.0962798 0)
(10.1572 0.0941488 0)
(10.1687 0.0921997 0)
(10.1789 0.0901946 0)
(10.188 0.0879962 0)
(10.1962 0.0855512 0)
(10.2038 0.0828211 0)
(10.2108 0.0797338 0)
(10.2175 0.0761504 0)
(10.224 0.0718244 0)
(10.2303 0.0663397 0)
(10.236 0.0590562 0)
(10.2403 0.0493341 0)
(10.0005 0.0127968 0)
(10.0258 0.0613583 0)
(10.0589 0.0829333 0)
(10.0881 0.0913076 0)
(10.1107 0.0923179 0)
(10.128 0.091234 0)
(10.1424 0.0897216 0)
(10.1549 0.0881062 0)
(10.1663 0.0863129 0)
(10.1769 0.0842653 0)
(10.1869 0.0819235 0)
(10.1963 0.0792487 0)
(10.2053 0.0761676 0)
(10.214 0.0725475 0)
(10.2225 0.0681696 0)
(10.2307 0.0627085 0)
(10.2381 0.0557683 0)
(10.2441 0.0471609 0)
(10.0004 0.0107348 0)
(10.0198 0.0525014 0)
(10.0483 0.073682 0)
(10.0748 0.0831699 0)
(10.0965 0.085727 0)
(10.1139 0.0856868 0)
(10.1286 0.0847561 0)
(10.1416 0.0834478 0)
(10.1535 0.08183 0)
(10.1646 0.0798896 0)
(10.1751 0.0776068 0)
(10.1851 0.0749488 0)
(10.1947 0.0718482 0)
(10.204 0.0681891 0)
(10.2129 0.0637954 0)
(10.2213 0.0584414 0)
(10.2289 0.0519232 0)
(10.2351 0.044279 0)
(10.0004 0.00901395 0)
(10.0153 0.0448097 0)
(10.0393 0.0649987 0)
(10.0629 0.0750778 0)
(10.0834 0.0788195 0)
(10.1006 0.0796926 0)
(10.1154 0.079319 0)
(10.1286 0.0783209 0)
(10.1407 0.076879 0)
(10.1521 0.0750407 0)
(10.1628 0.0728121 0)
(10.173 0.0701724 0)
(10.1828 0.0670676 0)
(10.1922 0.063406 0)
(10.2011 0.0590607 0)
(10.2094 0.0538961 0)
(10.2168 0.0478405 0)
(10.223 0.0410275 0)
(10.0003 0.00757195 0)
(10.0119 0.0381625 0)
(10.032 0.0569714 0)
(10.0527 0.0671976 0)
(10.0717 0.0717437 0)
(10.0882 0.073346 0)
(10.1028 0.0734676 0)
(10.116 0.0727691 0)
(10.1282 0.0715057 0)
(10.1396 0.0697747 0)
(10.1503 0.0676089 0)
(10.1606 0.0650042 0)
(10.1704 0.0619247 0)
(10.1797 0.0583076 0)
(10.1884 0.0540743 0)
(10.1965 0.0491615 0)
(10.2037 0.0435791 0)
(10.2097 0.0374879 0)
(10.0003 0.0063564 0)
(10.0094 0.03242 0)
(10.026 0.0496082 0)
(10.0442 0.059636 0)
(10.0614 0.0646518 0)
(10.077 0.0667799 0)
(10.0911 0.0672994 0)
(10.104 0.0668619 0)
(10.116 0.0657644 0)
(10.1273 0.0641403 0)
(10.138 0.0620459 0)
(10.1481 0.0594953 0)
(10.1578 0.0564733 0)
(10.1669 0.0529462 0)
(10.1754 0.0488777 0)
(10.1832 0.0442576 0)
(10.1901 0.03914 0)
(10.1961 0.0336809 0)
(10.0002 0.00533004 0)
(10.0074 0.0274444 0)
(10.0213 0.0428776 0)
(10.0371 0.0524367 0)
(10.0526 0.0576419 0)
(10.0672 0.0601073 0)
(10.0806 0.0609184 0)
(10.093 0.060688 0)
(10.1047 0.0597308 0)
(10.1157 0.0582041 0)
(10.1261 0.0561844 0)
(10.136 0.0537035 0)
(10.1454 0.0507664 0)
(10.1542 0.0473662 0)
(10.1624 0.0435007 0)
(10.1699 0.039194 0)
(10.1766 0.0345209 0)
(10.1824 0.0296193 0)
(10.0002 0.00453026 0)
(10.006 0.0232854 0)
(10.0177 0.0369814 0)
(10.0315 0.0458898 0)
(10.0455 0.0510507 0)
(10.059 0.0536778 0)
(10.0717 0.0546713 0)
(10.0836 0.0545867 0)
(10.0948 0.0537368 0)
(10.1054 0.0522925 0)
(10.1155 0.0503455 0)
(10.1251 0.0479429 0)
(10.1341 0.0451079 0)
(10.1426 0.0418551 0)
(10.1504 0.0382061 0)
(10.1576 0.034205 0)
(10.1641 0.0299316 0)
(10.1697 0.0255038 0)
(10.0001 0.00379217 0)
(10.005 0.0198932 0)
(10.015 0.0319963 0)
(10.0272 0.0401822 0)
(10.0399 0.0451434 0)
(10.0525 0.0477961 0)
(10.0644 0.0488791 0)
(10.0758 0.0488847 0)
(10.0866 0.0481119 0)
(10.0969 0.0467355 0)
(10.1066 0.0448571 0)
(10.1158 0.0425358 0)
(10.1245 0.0398091 0)
(10.1326 0.0367073 0)
(10.1401 0.033267 0)
(10.147 0.029542 0)
(10.1532 0.0256105 0)
(10.1587 0.0215723 0)
(10.0001 0.00305843 0)
(10.0041 0.016448 0)
(10.0125 0.0267613 0)
(10.0231 0.0339964 0)
(10.0345 0.0385631 0)
(10.046 0.0411066 0)
(10.0573 0.0421992 0)
(10.068 0.0422543 0)
(10.0783 0.0415429 0)
(10.0881 0.0402355 0)
(10.0974 0.0384387 0)
(10.1062 0.0362216 0)
(10.1144 0.033634 0)
(10.1222 0.0307188 0)
(10.1293 0.0275233 0)
(10.1359 0.0241053 0)
(10.1418 0.020537 0)
(10.1471 0.0169002 0)
(10.0001 0.00233158 0)
(10.0034 0.0129827 0)
(10.0103 0.0213375 0)
(10.0194 0.0273865 0)
(10.0295 0.0313331 0)
(10.04 0.0335939 0)
(10.0503 0.0345813 0)
(10.0604 0.0346198 0)
(10.0701 0.0339392 0)
(10.0793 0.032695 0)
(10.0882 0.0309922 0)
(10.0965 0.0289048 0)
(10.1043 0.0264901 0)
(10.1116 0.0237989 0)
(10.1184 0.0208833 0)
(10.1246 0.0178 0)
(10.1303 0.0146117 0)
(10.1354 0.0113835 0)
(10.0001 0.00161167 0)
(10.0027 0.00952173 0)
(10.0085 0.0157718 0)
(10.0163 0.0204018 0)
(10.0251 0.0234829 0)
(10.0345 0.0252553 0)
(10.0439 0.025989 0)
(10.0533 0.0259163 0)
(10.0623 0.0252155 0)
(10.071 0.0240164 0)
(10.0793 0.0224133 0)
(10.0872 0.0204774 0)
(10.0946 0.0182668 0)
(10.1015 0.0158334 0)
(10.1079 0.0132278 0)
(10.1137 0.0105011 0)
(10.1191 0.00770479 0)
(10.124 0.00488859 0)
(10.0001 0.000888502 0)
(10.0023 0.0060506 0)
(10.0071 0.0100612 0)
(10.0137 0.0130479 0)
(10.0215 0.0150131 0)
(10.0299 0.0160723 0)
(10.0385 0.0163783 0)
(10.0471 0.016075 0)
(10.0555 0.0152823 0)
(10.0636 0.0140942 0)
(10.0714 0.0125841 0)
(10.0788 0.0108115 0)
(10.0857 0.00882676 0)
(10.0922 0.00667565 0)
(10.0983 0.00440136 0)
(10.1038 0.00204541 0)
(10.109 -0.00035259 0)
(10.1137 -0.00275639 0)
(10.0001 0.000132321 0)
(10.0019 0.00248697 0)
(10.0061 0.00409829 0)
(10.012 0.00521571 0)
(10.0189 0.00581685 0)
(10.0265 0.00593586 0)
(10.0344 0.00563164 0)
(10.0423 0.00496675 0)
(10.0502 0.00399835 0)
(10.0578 0.00277583 0)
(10.0651 0.00134172 0)
(10.072 -0.000266355 0)
(10.0786 -0.00201394 0)
(10.0847 -0.00386867 0)
(10.0905 -0.00579962 0)
(10.0958 -0.00777748 0)
(10.1007 -0.00977498 0)
(10.1052 -0.0117678 0)
(10.0001 -0.000729824 0)
(10.0018 -0.00139013 0)
(10.0057 -0.00244445 0)
(10.0112 -0.00346677 0)
(10.0178 -0.00448037 0)
(10.025 -0.00551221 0)
(10.0324 -0.0065871 0)
(10.04 -0.00772439 0)
(10.0475 -0.00893615 0)
(10.0547 -0.0102271 0)
(10.0617 -0.0115957 0)
(10.0683 -0.013035 0)
(10.0745 -0.014534 0)
(10.0804 -0.0160792 0)
(10.0858 -0.0176556 0)
(10.0909 -0.0192475 0)
(10.0957 -0.0208399 0)
(10.1001 -0.0224187 0)
(10.0001 -0.00151291 0)
(10.002 -0.00557562 0)
(10.0062 -0.00948565 0)
(10.012 -0.0127661 0)
(10.0189 -0.0154489 0)
(10.0263 -0.017639 0)
(10.034 -0.0194623 0)
(10.0416 -0.0210347 0)
(10.049 -0.0224481 0)
(10.0561 -0.0237686 0)
(10.063 -0.0250401 0)
(10.0694 -0.0262889 0)
(10.0755 -0.027529 0)
(10.0812 -0.0287659 0)
(10.0866 -0.0299994 0)
(10.0915 -0.031226 0)
(10.0962 -0.0324406 0)
(10.1005 -0.0336377 0)
(10.0001 -0.00229121 0)
(10.0023 -0.00922149 0)
(10.0073 -0.0155118 0)
(10.014 -0.0205509 0)
(10.0217 -0.0244276 0)
(10.0298 -0.0273619 0)
(10.0379 -0.0296019 0)
(10.0459 -0.0313638 0)
(10.0535 -0.0328126 0)
(10.0608 -0.0340647 0)
(10.0676 -0.0351969 0)
(10.0741 -0.0362579 0)
(10.0802 -0.0372767 0)
(10.0859 -0.0382692 0)
(10.0912 -0.0392434 0)
(10.0961 -0.040202 0)
(10.1008 -0.0411449 0)
(10.1051 -0.0420703 0)
(10.0001 -0.00315769 0)
(10.003 -0.0131207 0)
(10.0092 -0.0217896 0)
(10.0173 -0.0284079 0)
(10.0262 -0.0332094 0)
(10.0352 -0.0366047 0)
(10.0441 -0.039012 0)
(10.0525 -0.0407669 0)
(10.0605 -0.0421098 0)
(10.068 -0.0432 0)
(10.075 -0.0441382 0)
(10.0815 -0.0449861 0)
(10.0877 -0.04578 0)
(10.0934 -0.0465408 0)
(10.0987 -0.0472796 0)
(10.1037 -0.0480021 0)
(10.1083 -0.0487103 0)
(10.1126 -0.0494043 0)
(10.0002 -0.00416007 0)
(10.004 -0.017509 0)
(10.012 -0.0285958 0)
(10.0219 -0.0365848 0)
(10.0324 -0.0419983 0)
(10.0427 -0.04554 0)
(10.0524 -0.0478537 0)
(10.0614 -0.049409 0)
(10.0697 -0.0505158 0)
(10.0775 -0.0513637 0)
(10.0846 -0.0520636 0)
(10.0913 -0.052679 0)
(10.0975 -0.0532456 0)
(10.1032 -0.0537835 0)
(10.1086 -0.0543036 0)
(10.1135 -0.054812 0)
(10.1182 -0.0553108 0)
(10.1225 -0.0558005 0)
(10.0002 -0.00533028 0)
(10.0054 -0.0226018 0)
(10.0159 -0.036103 0)
(10.0282 -0.0451903 0)
(10.0406 -0.0508443 0)
(10.0522 -0.0541947 0)
(10.0628 -0.0561569 0)
(10.0723 -0.0573371 0)
(10.081 -0.0580987 0)
(10.0889 -0.0586415 0)
(10.0961 -0.0590705 0)
(10.1028 -0.0594397 0)
(10.109 -0.059777 0)
(10.1147 -0.0600973 0)
(10.12 -0.0604091 0)
(10.125 -0.0607169 0)
(10.1295 -0.0610223 0)
(10.1337 -0.0613253 0)
(10.0002 -0.006642 0)
(10.0073 -0.028626 0)
(10.0212 -0.0443835 0)
(10.0363 -0.0542241 0)
(10.0508 -0.0596817 0)
(10.0636 -0.062489 0)
(10.0749 -0.0638511 0)
(10.0848 -0.0645026 0)
(10.0936 -0.0648331 0)
(10.1015 -0.0650275 0)
(10.1087 -0.0651664 0)
(10.1153 -0.065283 0)
(10.1213 -0.0653911 0)
(10.1269 -0.0654976 0)
(10.132 -0.0656071 0)
(10.1367 -0.0657224 0)
(10.141 -0.0658449 0)
(10.1451 -0.0659731 0)
(10.0001 -0.00789715 0)
(10.0099 -0.035828 0)
(10.028 -0.0533983 0)
(10.0461 -0.0635654 0)
(10.0626 -0.0683295 0)
(10.0765 -0.0702451 0)
(10.0882 -0.0707913 0)
(10.0982 -0.0708028 0)
(10.1068 -0.0706531 0)
(10.1145 -0.0704804 0)
(10.1214 -0.070323 0)
(10.1276 -0.0701847 0)
(10.1333 -0.0700617 0)
(10.1384 -0.0699521 0)
(10.143 -0.0698571 0)
(10.1472 -0.0697791 0)
(10.1511 -0.0697201 0)
(10.1546 -0.0696777 0)
(9.99958 -0.00887443 0)
(10.0131 -0.0442617 0)
(10.0359 -0.0629865 0)
(10.0573 -0.0730135 0)
(10.0759 -0.0765904 0)
(10.0908 -0.0773213 0)
(10.1027 -0.0768863 0)
(10.1124 -0.0761708 0)
(10.1204 -0.0754905 0)
(10.1273 -0.0749137 0)
(10.1331 -0.0744264 0)
(10.1382 -0.0740008 0)
(10.1426 -0.0736151 0)
(10.1464 -0.0732586 0)
(10.1497 -0.0729297 0)
(10.1524 -0.072631 0)
(10.1547 -0.0723671 0)
(10.1567 -0.0721374 0)
(9.99619 -0.00214885 0)
(10.017 -0.0554488 0)
(10.0459 -0.0732178 0)
(10.0723 -0.0823875 0)
(10.0935 -0.0843679 0)
(10.1089 -0.0835754 0)
(10.1196 -0.0818908 0)
(10.1267 -0.0802328 0)
(10.1313 -0.078842 0)
(10.1339 -0.0777024 0)
(10.135 -0.0767393 0)
(10.1349 -0.0758887 0)
(10.1337 -0.0751073 0)
(10.1315 -0.0743735 0)
(10.1284 -0.0736809 0)
(10.1246 -0.0730306 0)
(10.1201 -0.072432 0)
(10.1149 -0.0718964 0)
(9.99374 -0.0631269 0)
(10.0233 -0.0518066 0)
(10.0719 -0.0850849 0)
(10.1057 -0.094267 0)
(10.1235 -0.0929422 0)
(10.1262 -0.088937 0)
(10.1167 -0.0845424 0)
(10.0979 -0.0806814 0)
(10.0721 -0.0774619 0)
(10.0413 -0.0747494 0)
(10.0067 -0.0723847 0)
(9.9692 -0.0702491 0)
(9.9297 -0.0682651 0)
(9.88881 -0.0663925 0)
(9.84708 -0.064614 0)
(9.80495 -0.0629252 0)
(9.76279 -0.0613388 0)
(9.72089 -0.0598879 0)
(9.85145 1.36809 0)
(10.1935 -0.419344 0)
(10.1386 -0.237367 0)
(10.0328 -0.146667 0)
(9.86732 -0.100463 0)
(9.66928 -0.0731418 0)
(9.46713 -0.0556411 0)
(9.27623 -0.0444069 0)
(9.1026 -0.0373081 0)
(8.94677 -0.0328185 0)
(8.80709 -0.0298994 0)
(8.68141 -0.0278848 0)
(8.56771 -0.0263713 0)
(8.46431 -0.0251349 0)
(8.36986 -0.0240564 0)
(8.28325 -0.0230801 0)
(8.20356 -0.0221945 0)
(8.13002 -0.0214547 0)
(0.00336842 -0.012193 0)
(0.0138506 -0.0119014 0)
(0.0340227 -0.0143148 1.04219e-19)
(0.0500282 -0.0101349 0)
(0.0585941 -0.00442521 0)
(0.0594851 0.0010231 0)
(0.053629 0.00534853 0)
(0.0425501 0.00848359 0)
(0.0274711 0.0107659 -6.90463e-20)
(0.00931552 0.0124849 0)
(-0.0113389 0.013718 0)
(-0.0342303 0.014603 0)
(-0.0591498 0.0153588 0)
(-0.0860024 0.0160709 0)
(-0.114713 0.0167576 0)
(-0.145215 0.0174148 0)
(-0.177444 0.0180339 6.28836e-20)
(-0.21127 0.0185892 0)
(-0.246566 0.0190755 -2.59482e-20)
(-0.283163 0.0194815 2.37675e-20)
(-0.320896 0.0197997 0)
(-0.359602 0.0200438 0)
(-0.39908 0.0201935 0)
(-0.439168 0.0202658 0)
(-0.479705 0.0202753 0)
(-0.52053 0.0202294 0)
(-0.561523 0.0201371 -1.47438e-20)
(-0.602559 0.0200139 0)
(-0.643551 0.0198617 1.33595e-20)
(-0.684423 0.0196703 0)
(-0.725119 0.0194111 -1.22745e-20)
(-0.765579 0.01904 0)
(-0.805716 0.0185086 0)
(-0.845409 0.0177929 1.10343e-20)
(-0.884409 0.0169647 0)
(-0.92244 0.0163417 0)
(-0.959212 0.0165112 2.01445e-20)
(-0.994488 0.0182795 0)
(-1.02848 0.0223044 0)
(-1.06154 0.0295465 1.90338e-20)
(-1.09472 0.0415593 0)
(-1.12932 0.0614152 9.86028e-21)
(-1.17066 0.0922616 0)
(-1.21017 -0.0273836 -3.01937e-20)
(-1.23459 -0.0335409 0)
(-1.274 -0.0504741 0)
(-1.31249 -0.0818408 0)
(-1.33163 -0.052873 0)
(-1.37358 0.0276379 0)
(-1.41216 0.0260144 1.56644e-20)
(-1.4441 0.0537709 0)
(-1.49292 0.0861107 0)
(-1.5296 -0.0889722 0)
(-1.53768 -0.14892 0)
(-1.54778 0.00255304 0)
(-1.588 0.0305951 0)
(-1.62242 0.0287981 1.40138e-20)
(-1.65483 0.0527344 0)
(-1.68697 0.0215366 -7.07061e-21)
(-1.70226 0.0502214 -1.41609e-20)
(-1.73389 0.0940708 0)
(-1.77874 0.0564926 1.95271e-20)
(-1.77003 -0.0282634 0)
(-1.79136 0.00839086 -2.05244e-20)
(-1.82355 -0.0208896 0)
(-1.85638 0.0883146 1.78783e-20)
(-1.87596 0.00387007 1.93406e-20)
(-1.89038 0.00632008 -1.90624e-20)
(-1.90829 0.00674115 0)
(-1.92683 0.00664858 0)
(-1.94514 0.00639468 1.82492e-20)
(-1.96291 0.00608495 0)
(-1.98004 0.00573457 0)
(-1.99643 0.00536674 -3.49577e-20)
(-2.01206 0.00506224 0)
(-2.02704 0.00474849 0)
(-2.04139 0.00440694 0)
(-2.05493 0.00411109 1.64848e-20)
(-2.06795 0.00384408 0)
(-2.08036 0.00356139 -3.19974e-20)
(-2.0922 0.00333524 1.57568e-20)
(-2.10359 0.00310373 0)
(-2.11454 0.00292755 -1.528e-20)
(-2.12516 0.00273741 -3.0089e-20)
(-2.13555 0.00258605 -1.48081e-20)
(-2.14567 0.00245959 0)
(-2.15572 0.00236967 0)
(-2.16578 0.0022847 0)
(-2.1761 0.00220222 0)
(-2.18641 0.00225987 0)
(-2.1967 0.00237348 -2.68857e-20)
(-2.20724 0.00250192 0)
(-2.21818 0.00265833 0)
(-2.22971 0.00283362 -1.27902e-20)
(-2.24178 0.00300869 0)
(-2.25462 0.00324534 0)
(-2.26813 0.00354211 2.43184e-20)
(-2.2829 0.00390846 0)
(-2.29888 0.00415906 0)
(-2.31549 0.00433747 0)
(-2.33271 0.00459545 0)
(-2.35084 0.0048628 0)
(-2.36978 0.00513636 0)
(-2.38973 0.00542459 0)
(-2.4105 0.00570241 2.11311e-20)
(-2.4322 0.00594932 0)
(-2.45473 0.00622361 0)
(-2.4781 0.00644824 0)
(-2.50218 0.00669816 1.96431e-20)
(-2.52696 0.00686733 -1.92796e-20)
(-2.55218 0.00704155 0)
(-2.57792 0.00695196 1.85429e-20)
(-2.60372 0.00718681 0)
(-2.62952 0.00715912 0)
(-2.65517 0.00698275 1.74368e-20)
(-2.6807 0.00716883 0)
(-2.70568 0.00711848 0)
(-2.72995 0.00675386 0)
(-2.75306 0.00656682 0)
(-2.77506 0.00636595 0)
(-2.79546 0.00594304 0)
(-2.81417 0.0051586 0)
(-2.83045 0.00473262 -1.39706e-20)
(-2.84442 0.00400978 0)
(-2.85556 0.00304311 1.29017e-20)
(-2.86308 0.00218652 0)
(-2.86684 0.00149045 0)
(-2.86714 0.000659015 -1.10784e-20)
(-2.8638 -5.25917e-05 0)
(-2.8567 -0.000897578 0)
(-2.84567 -0.00172018 0)
(-2.83031 -0.00269522 1.60034e-20)
(-2.81088 -0.00350731 0)
(-2.78688 -0.00445772 0)
(-2.75811 -0.00541018 0)
(-2.72464 -0.00637236 -7.81218e-21)
(-2.68639 -0.00737068 0)
(-2.64306 -0.00835557 1.37014e-21)
(-2.59465 -0.00933663 3.73427e-23)
(-2.54114 -0.0102517 0)
(-2.4824 -0.0110381 0)
(-2.41864 -0.0116525 -9.76878e-21)
(-2.34983 -0.0119922 0)
(-2.27615 -0.0116984 0)
(-2.19747 -0.00997673 0)
(-2.11434 -0.00470745 -2.6091e-20)
(-2.028 0.00575864 0)
(-1.93511 0.0128516 0)
(-1.84812 -0.00195668 0)
(-1.74776 -0.0129177 0)
(-1.6442 -0.0201751 0)
(-1.52859 -0.0131787 6.89624e-20)
(-1.41425 -0.01214 0)
(-1.29611 -0.0127516 8.99389e-20)
(-1.1757 -0.0135922 0)
(-1.05308 -0.014841 1.16483e-19)
(-0.928525 -0.0163826 0)
(-0.802565 -0.0187558 0)
(-0.675182 -0.0224283 0)
(-0.546169 -0.0275154 0)
(-0.414042 -0.032488 0)
(-0.279557 -0.0344229 0)
(-0.145852 -0.0364585 0)
(-0.0090078 -0.0387709 0)
(0.138585 -0.0371358 -6.81845e-19)
(0.298993 -0.0383959 0)
(0.487235 0.000891811 0)
(0.630925 -0.0365656 3.00929e-19)
(0.775868 -0.0803714 0)
(0.87953 -0.0451777 0)
(0.994547 -0.0291871 4.57757e-19)
(1.12201 -0.0220681 0)
(1.25803 -0.010014 -3.95338e-19)
(1.42019 0.0715501 0)
(1.5713 0.00527796 0)
(1.70366 -0.015712 0)
(1.83646 0.00846155 0)
(1.96264 0.00247109 0)
(2.06744 -0.00865479 0)
(2.12607 0.001411 0)
(0.00287038 -0.0429319 -4.14946e-19)
(0.0162782 -0.041407 -3.51848e-20)
(0.0197725 -0.0291742 1.93138e-20)
(0.0177944 -0.0137913 0)
(0.0117733 0.00171082 0)
(0.00224418 0.0159453 1.17977e-20)
(-0.010651 0.0283017 -2.20891e-20)
(-0.0268544 0.0386273 0)
(-0.0462324 0.0470849 3.00634e-20)
(-0.0685546 0.0540023 -1.75656e-23)
(-0.0935398 0.0597501 0)
(-0.120884 0.064651 1.77287e-20)
(-0.150295 0.0689364 0)
(-0.18153 0.0727608 0)
(-0.21436 0.0762013 0)
(-0.248583 0.0792809 0)
(-0.284022 0.0819917 -2.87742e-20)
(-0.320513 0.0843167 0)
(-0.357899 0.0862409 0)
(-0.396037 0.0877635 -2.53882e-20)
(-0.434786 0.0888849 0)
(-0.474016 0.0896233 -2.3448e-20)
(-0.513603 0.0900004 -1.13094e-20)
(-0.553434 0.0900434 -2.17607e-20)
(-0.5934 0.0897849 2.10011e-20)
(-0.633407 0.089261 1.01294e-20)
(-0.673377 0.0885113 2.94901e-20)
(-0.713228 0.0875741 0)
(-0.752892 0.0864833 9.26399e-21)
(-0.792311 0.0852761 -9.00694e-21)
(-0.831441 0.0839773 -1.75394e-20)
(-0.870241 0.0825997 8.55093e-21)
(-0.908687 0.0811368 -8.35166e-21)
(-0.946798 0.0795602 0)
(-0.984597 0.077828 -8.00357e-21)
(-1.02214 0.0759211 0)
(-1.05949 0.0739136 0)
(-1.09669 0.0720157 7.57797e-21)
(-1.13375 0.0705617 0)
(-1.17057 0.0699251 7.42255e-21)
(-1.20697 0.0702885 0)
(-1.24207 0.0713793 0)
(-1.27482 0.0714939 -8.98589e-21)
(-1.31051 0.0665455 0)
(-1.34758 0.065599 0)
(-1.38084 0.0643869 2.67034e-20)
(-1.41375 0.060879 0)
(-1.44962 0.0589454 0)
(-1.47852 0.0614409 6.58164e-21)
(-1.5079 0.0584124 -1.31919e-20)
(-1.5376 0.0585658 -1.33849e-23)
(-1.56206 0.0575623 0)
(-1.59188 0.0500826 -2.93921e-20)
(-1.62751 0.0451555 -1.33929e-20)
(-1.66085 0.0488158 0)
(-1.68533 0.0510201 -1.19509e-20)
(-1.71019 0.0491248 1.18452e-20)
(-1.73437 0.0481022 0)
(-1.75999 0.0431814 1.17714e-20)
(-1.78798 0.0422534 -3.48988e-20)
(-1.80974 0.0421902 2.36524e-20)
(-1.82946 0.0365467 0)
(-1.86095 0.0345611 2.56392e-20)
(-1.88479 0.0395369 -3.79299e-20)
(-1.90408 0.0369588 -1.18964e-20)
(-1.92146 0.0355744 2.30784e-20)
(-1.94266 0.0303184 1.14802e-20)
(-1.96382 0.0294766 2.25995e-20)
(-1.983 0.02867 -2.22793e-20)
(-2.00116 0.0276309 0)
(-2.01857 0.0264659 1.08412e-20)
(-2.03533 0.0252552 2.13377e-20)
(-2.05146 0.0240366 0)
(-2.067 0.022859 0)
(-2.08196 0.0217195 0)
(-2.09635 0.0206219 2.0104e-20)
(-2.11022 0.0195808 0)
(-2.1236 0.018626 -1.95168e-20)
(-2.13652 0.0177246 -9.60712e-21)
(-2.14904 0.0169141 0)
(-2.16121 0.0161805 0)
(-2.17307 0.015544 0)
(-2.18469 0.01499 -9.013e-21)
(-2.19613 0.0145346 2.65883e-20)
(-2.20748 0.0141678 0)
(-2.2188 0.0139065 -1.7169e-20)
(-2.23015 0.0137419 0)
(-2.24161 0.0136669 0)
(-2.25339 0.0136866 3.26893e-20)
(-2.26551 0.0138261 0)
(-2.27777 0.0141454 -1.58254e-20)
(-2.29034 0.0146033 1.55954e-20)
(-2.30337 0.0151415 0)
(-2.31692 0.0157379 0)
(-2.33107 0.0164272 0)
(-2.34591 0.0172117 0)
(-2.36142 0.0181276 -1.44468e-20)
(-2.37775 0.0190906 0)
(-2.39476 0.0198937 2.80396e-20)
(-2.41252 0.0205531 0)
(-2.43095 0.0212676 0)
(-2.45003 0.0220041 1.34154e-20)
(-2.46979 0.0227516 0)
(-2.49018 0.0234592 0)
(-2.51118 0.0241193 0)
(-2.53274 0.0247163 -3.81263e-20)
(-2.55477 0.0252141 0)
(-2.57718 0.0256199 1.24001e-20)
(-2.59987 0.0258937 2.43981e-20)
(-2.6227 0.0260367 1.20743e-20)
(-2.64553 0.0260259 -1.19095e-20)
(-2.66822 0.0258023 1.16642e-20)
(-2.69063 0.0254679 1.15812e-20)
(-2.71256 0.0249293 1.14104e-20)
(-2.7338 0.0242051 -2.24028e-20)
(-2.75412 0.0232645 0)
(-2.77332 0.022119 0)
(-2.79119 0.0207204 0)
(-2.80752 0.0191067 2.07845e-20)
(-2.82203 0.0172799 0)
(-2.83454 0.0152002 0)
(-2.84479 0.0128841 -9.65919e-21)
(-2.85258 0.0103985 -1.86973e-20)
(-2.8577 0.00766872 0)
(-2.85995 0.00476001 0)
(-2.85924 0.00173244 0)
(-2.85527 -0.00141778 0)
(-2.84774 -0.0047035 1.50181e-20)
(-2.83636 -0.00809695 0)
(-2.82095 -0.0116205 0)
(-2.8013 -0.0152367 0)
(-2.77723 -0.0189594 0)
(-2.74858 -0.0227444 0)
(-2.71519 -0.0265961 0)
(-2.67693 -0.0304924 3.42186e-21)
(-2.63368 -0.0344067 -1.01214e-22)
(-2.58535 -0.0383352 0)
(-2.53184 -0.0422404 0)
(-2.47311 -0.0461106 1.30546e-22)
(-2.40911 -0.0499277 1.57684e-21)
(-2.33982 -0.0536513 -3.55533e-21)
(-2.26524 -0.0572769 -5.62656e-21)
(-2.18546 -0.060739 -7.78397e-21)
(-2.1005 -0.0640133 0)
(-2.01051 -0.0670994 1.23684e-20)
(-1.91555 -0.0700931 0)
(-1.81531 -0.0730983 -1.78078e-20)
(-1.70947 -0.0756047 0)
(-1.59697 -0.0772956 4.8193e-20)
(-1.48057 -0.081542 -2.70504e-20)
(-1.36081 -0.0861685 0)
(-1.2378 -0.0884189 0)
(-1.10944 -0.0898925 3.59232e-20)
(-0.977506 -0.0911262 4.00299e-20)
(-0.842212 -0.092129 4.34637e-20)
(-0.703931 -0.0929992 4.69801e-20)
(-0.562809 -0.0937358 1.00904e-19)
(-0.419004 -0.09435 0)
(-0.272416 -0.0950395 0)
(-0.123548 -0.0960122 1.26983e-19)
(0.0271077 -0.0971627 0)
(0.179948 -0.0978907 7.0348e-20)
(0.334492 -0.0985433 1.48859e-19)
(0.489669 -0.0992653 0)
(0.644065 -0.100617 0)
(0.794418 -0.104103 8.42546e-20)
(0.938315 -0.0968914 8.12661e-20)
(1.08385 -0.0911171 0)
(1.22866 -0.0952942 -2.13958e-19)
(1.39095 -0.0878215 0)
(1.53854 -0.0868566 2.67528e-19)
(1.68074 -0.0841903 0)
(1.81362 -0.0840933 -1.23695e-19)
(1.93652 -0.0793148 2.07713e-19)
(2.05479 -0.076573 0)
(2.17004 -0.0710836 0)
(2.28021 -0.0673274 -1.64348e-19)
(2.37753 -0.0595598 0)
(2.45836 -0.0445331 0)
(2.51709 -0.00705759 -1.5811e-19)
(-0.000381712 -0.050808 3.68681e-19)
(4.47297e-06 -0.0435372 1.96433e-19)
(-0.00668661 -0.0199333 5.09177e-20)
(-0.0165964 0.00293474 -1.53222e-23)
(-0.0289014 0.0243529 3.09518e-20)
(-0.0433375 0.0439561 -2.74835e-20)
(-0.0598561 0.0615101 5.06701e-20)
(-0.0785026 0.0769343 -2.38593e-20)
(-0.0993132 0.0902954 0)
(-0.122281 0.101783 -2.18296e-20)
(-0.147325 0.111646 0)
(-0.174306 0.120145 0)
(-0.203046 0.127513 -1.95621e-20)
(-0.233344 0.133922 0)
(-0.265 0.139493 -3.64311e-20)
(-0.297819 0.144288 0)
(-0.331636 0.148359 -1.69605e-20)
(-0.366287 0.151725 1.63659e-20)
(-0.401641 0.15441 0)
(-0.437568 0.156433 -1.51013e-23)
(-0.473952 0.157827 0)
(-0.510689 0.158626 1.42307e-20)
(-0.547683 0.158872 0)
(-0.584855 0.158618 -4.00283e-20)
(-0.622115 0.15791 1.29468e-20)
(-0.6594 0.156807 -1.25381e-20)
(-0.696645 0.155356 0)
(-0.733786 0.153613 -1.18688e-20)
(-0.770775 0.15163 1.15616e-20)
(-0.807562 0.149455 1.77856e-23)
(-0.844112 0.147128 1.10321e-20)
(-0.880394 0.144684 -1.07902e-20)
(-0.91639 0.142149 -2.11342e-20)
(-0.952118 0.139537 0)
(-0.987596 0.136868 -1.01773e-20)
(-1.02287 0.134165 1.99473e-20)
(-1.05797 0.131495 1.96145e-20)
(-1.09288 0.128964 1.93542e-20)
(-1.12752 0.126727 1.89658e-20)
(-1.16163 0.124929 1.86652e-20)
(-1.19485 0.123556 1.84511e-20)
(-1.22692 0.12218 1.83909e-20)
(-1.25816 0.119925 0)
(-1.28952 0.116488 1.84448e-20)
(-1.32114 0.112966 0)
(-1.35248 0.109546 8.28633e-23)
(-1.38367 0.106157 0)
(-1.41457 0.103724 0)
(-1.44396 0.102408 0)
(-1.47201 0.100558 0)
(-1.49909 0.0981823 0)
(-1.52564 0.0945929 0)
(-1.55322 0.0899867 1.62389e-20)
(-1.58184 0.0863545 -1.59783e-20)
(-1.60976 0.0850187 1.56833e-20)
(-1.63519 0.0842591 3.08313e-20)
(-1.65913 0.0823856 0)
(-1.68251 0.0798935 -1.48666e-20)
(-1.70578 0.0769025 -1.45531e-20)
(-1.7288 0.0743913 0)
(-1.75066 0.0717872 0)
(-1.77242 0.0681996 0)
(-1.79496 0.0653403 2.79959e-20)
(-1.81614 0.0637488 -1.38929e-20)
(-1.83575 0.0614609 -1.36448e-20)
(-1.85484 0.0586575 -1.3383e-20)
(-1.87389 0.0555657 -1.31823e-20)
(-1.89264 0.0529962 0)
(-1.91067 0.0507253 -1.27927e-20)
(-1.92795 0.0485427 -1.26039e-20)
(-1.94457 0.0463912 -1.24073e-20)
(-1.96058 0.0442746 -1.22335e-20)
(-1.976 0.0422078 0)
(-1.99089 0.0402125 0)
(-2.00524 0.0382987 0)
(-2.0191 0.0364783 3.44917e-20)
(-2.03249 0.0347674 2.26278e-20)
(-2.04545 0.0331774 0)
(-2.05802 0.0317137 0)
(-2.07023 0.0303901 0)
(-2.08214 0.0292128 0)
(-2.09379 0.028189 0)
(-2.10524 0.0273229 1.02706e-20)
(-2.11655 0.0266201 -2.01863e-20)
(-2.12778 0.026084 9.93481e-21)
(-2.13901 0.0257158 -9.77024e-21)
(-2.15028 0.0255189 0)
(-2.16167 0.0254922 0)
(-2.1733 0.0256266 0)
(-2.18521 0.0259334 1.82684e-20)
(-2.19732 0.02646 0)
(-2.20972 0.0271887 1.77123e-20)
(-2.22251 0.0280683 0)
(-2.23576 0.0290746 -2.53942e-23)
(-2.24952 0.0302121 0)
(-2.26385 0.0314765 1.66385e-20)
(-2.27872 0.0328642 -1.63909e-20)
(-2.29422 0.0343155 1.61228e-20)
(-2.31025 0.0355884 0)
(-2.32689 0.0367141 -3.13539e-20)
(-2.34411 0.0378452 1.54381e-20)
(-2.36188 0.0389798 -3.37365e-23)
(-2.38016 0.0400884 0)
(-2.39894 0.0411249 1.48486e-20)
(-2.41815 0.0420565 0)
(-2.43774 0.0428533 0)
(-2.45763 0.0434775 0)
(-2.47774 0.0439098 0)
(-2.49794 0.0441143 1.39259e-20)
(-2.51813 0.0440703 0)
(-2.53815 0.0437529 1.35447e-20)
(-2.5579 0.0431353 0)
(-2.57719 0.0422312 0)
(-2.59585 0.0409965 2.60509e-20)
(-2.61369 0.0394194 -2.56847e-20)
(-2.63053 0.0374797 0)
(-2.64616 0.0351771 0)
(-2.66039 0.0324868 3.66793e-20)
(-2.673 0.0294195 -2.39729e-20)
(-2.68378 0.0259749 0)
(-2.69253 0.0221483 2.29283e-20)
(-2.69904 0.0179631 -3.35054e-20)
(-2.70308 0.0134503 3.25332e-20)
(-2.70447 0.00860636 -1.05041e-20)
(-2.70297 0.00347466 -1.01125e-20)
(-2.69838 -0.00192126 -1.94427e-20)
(-2.6904 -0.00758786 0)
(-2.67885 -0.0135065 2.63724e-20)
(-2.66347 -0.0196489 0)
(-2.64409 -0.0259987 0)
(-2.62052 -0.0325363 -1.42147e-20)
(-2.59258 -0.0392269 1.28035e-20)
(-2.5601 -0.0460434 0)
(-2.52297 -0.0529631 -9.84328e-21)
(-2.48101 -0.0599551 0)
(-2.43414 -0.0669844 0)
(-2.38223 -0.0740207 -4.58076e-21)
(-2.32521 -0.0810277 0)
(-2.26303 -0.0879689 1.56034e-22)
(-2.19562 -0.0948134 0)
(-2.12298 -0.101517 3.79442e-21)
(-2.0451 -0.108044 -6.18457e-21)
(-1.96195 -0.114348 0)
(-1.87356 -0.12038 0)
(-1.77989 -0.126135 -1.41066e-20)
(-1.68088 -0.131695 1.6907e-20)
(-1.57638 -0.137241 0)
(-1.46631 -0.142676 0)
(-1.35083 -0.147316 5.14143e-20)
(-1.23104 -0.152472 2.86668e-20)
(-1.10819 -0.15716 0)
(-0.982032 -0.161383 3.46748e-20)
(-0.85176 -0.164802 -3.94882e-22)
(-0.717515 -0.167515 4.12219e-20)
(-0.579665 -0.169695 4.47013e-20)
(-0.438665 -0.1715 -3.41006e-22)
(-0.294619 -0.173029 0)
(-0.147867 -0.174344 0)
(0.00164944 -0.175571 -6.10545e-20)
(0.153483 -0.1768 0)
(0.30705 -0.177792 0)
(0.46182 -0.178277 1.46742e-19)
(0.61702 -0.178603 -1.54811e-19)
(0.772126 -0.178694 0)
(0.925988 -0.178749 0)
(1.07627 -0.178631 -8.99264e-20)
(1.22456 -0.172308 0)
(1.37476 -0.167882 0)
(1.5208 -0.167125 1.0182e-19)
(1.67176 -0.16019 0)
(1.81766 -0.155795 0)
(1.95669 -0.150444 3.43035e-19)
(2.08871 -0.144901 -1.12187e-19)
(2.21471 -0.13665 -2.12797e-19)
(2.3346 -0.130975 -1.10271e-21)
(2.44793 -0.124262 0)
(2.55159 -0.114718 0)
(2.64396 -0.0989628 0)
(2.72168 -0.0761451 0)
(2.78682 -0.0311412 0)
(-0.0031012 -0.03729 3.45315e-19)
(-0.0124539 -0.0233463 0)
(-0.0265406 0.00550536 0)
(-0.0422488 0.0320083 -5.74569e-20)
(-0.0590445 0.0565401 0)
(-0.0769362 0.0791392 0)
(-0.0960052 0.0997586 1.904e-20)
(-0.116359 0.11836 -3.56308e-20)
(-0.138101 0.13496 0)
(-0.161292 0.149638 0)
(-0.18595 0.162527 0)
(-0.21203 0.173782 2.99938e-20)
(-0.239446 0.183567 -1.44797e-20)
(-0.26808 0.19203 0)
(-0.297794 0.199289 -2.70148e-20)
(-0.32845 0.20544 0)
(-0.359912 0.210556 -2.52084e-20)
(-0.392052 0.214692 -4.87393e-20)
(-0.424753 0.217903 2.35592e-20)
(-0.457916 0.220241 0)
(-0.491449 0.221761 0)
(-0.525265 0.222519 -2.13737e-20)
(-0.559289 0.222581 0)
(-0.593455 0.222003 0)
(-0.627693 0.220855 -1.95394e-20)
(-0.661955 0.219208 0)
(-0.696187 0.217122 3.70112e-20)
(-0.730338 0.214669 0)
(-0.76437 0.211905 0)
(-0.798243 0.208889 1.79529e-23)
(-0.831927 0.205679 0)
(-0.865392 0.202326 -1.64394e-20)
(-0.898615 0.198875 0)
(-0.931592 0.195369 -1.58287e-20)
(-0.96431 0.191849 0)
(-0.996766 0.188347 1.52525e-20)
(-1.02895 0.184901 0)
(-1.06083 0.181541 0)
(-1.09234 0.178284 0)
(-1.12338 0.175123 0)
(-1.15381 0.171985 1.40326e-20)
(-1.18355 0.168706 -1.38287e-20)
(-1.21268 0.165083 0)
(-1.24144 0.161082 1.34748e-20)
(-1.26999 0.156916 1.33228e-20)
(-1.29831 0.152804 2.63876e-20)
(-1.32635 0.148883 1.30172e-20)
(-1.35395 0.1453 1.28405e-20)
(-1.38085 0.141976 0)
(-1.40699 0.138552 0)
(-1.43252 0.134828 -1.22902e-20)
(-1.45769 0.130764 0)
(-1.48277 0.126583 -1.20452e-20)
(-1.50773 0.122724 0)
(-1.53219 0.119435 3.52573e-20)
(-1.55574 0.116454 1.15877e-20)
(-1.57841 0.113343 0)
(-1.60043 0.110003 0)
(-1.62197 0.106471 -2.18734e-20)
(-1.64307 0.102855 0)
(-1.6637 0.099131 2.11246e-20)
(-1.68398 0.0953121 0)
(-1.70393 0.0916964 0)
(-1.72316 0.0883516 -2.04666e-20)
(-1.74163 0.0849293 0)
(-1.75959 0.0813732 1.99026e-20)
(-1.77715 0.0778368 0)
(-1.79423 0.074433 1.9288e-20)
(-1.81076 0.0711786 0)
(-1.8267 0.0680383 0)
(-1.84206 0.0649914 0)
(-1.85686 0.0620323 -1.81549e-20)
(-1.87113 0.0591707 0)