/*--------------------------------*- C++ -*----------------------------------*\
  =========                 |
  \\      /  F ield         | OpenFOAM: The Open Source CFD Toolbox
   \\    /   O peration     | Website:  https://openfoam.org
    \\  /    A nd           | Version:  7
     \\/     M anipulation  |
\*---------------------------------------------------------------------------*/
FoamFile
{
    version     2.0;
    format      ascii;
    class       volScalarField;
    location    "400";
    object      epsilon;
}
// * * * * * * * * * * * * * * * * * * * * * * * * * * * * * * * * * * * * * //

dimensions      [0 2 -3 0 0 0 0];

internalField   nonuniform List<scalar> 
48900
(
215.674
970.793
838.515
844.001
995.276
1222.86
1416.69
1547.3
1626.1
1672.97
1702.86
1723.98
1740.56
1754.61
1766.85
1777.3
1786.05
1790.17
20.5249
211.361
289.39
410.55
613.855
874.63
1130.75
1344.35
1508.94
1632.66
1725.7
1796.74
1851.01
1892.39
1923.46
1945.89
1960.47
1965.52
14.6959
38.595
60.1471
79.4665
99.7937
124.228
153.188
185.407
219.388
254.085
288.932
323.694
358.233
392.381
425.865
458.28
489.023
516.875
14.679
18.7137
25.1895
31.4897
37.4178
43.2136
49.1175
55.2016
61.4193
67.6905
73.9625
80.2117
86.4414
92.6676
98.9047
105.151
111.363
117.341
14.7831
15.3133
17.2223
19.5958
22.0017
24.3269
26.5698
28.7494
30.8727
32.9359
34.9313
36.853
38.6983
40.4672
42.1611
43.7785
45.3129
46.7291
14.8071
14.7489
15.087
15.8725
16.8391
17.8605
18.8798
19.8756
20.8397
21.7676
22.656
23.5024
24.3051
25.0634
25.7764
26.4431
27.0601
27.6176
14.8118
14.6517
14.5999
14.7071
14.9883
15.3641
15.7885
16.2332
16.6816
17.1241
17.5545
17.969
18.365
18.7408
19.0951
19.4264
19.7324
20.0077
14.8115
14.6426
14.4978
14.4077
14.3903
14.438
14.5442
14.6851
14.8492
15.026
15.2089
15.3931
15.575
15.7522
15.9226
16.0846
16.2363
16.3738
14.8111
14.6409
14.4824
14.3418
14.2275
14.1453
14.0966
14.0765
14.0811
14.1034
14.1397
14.1859
14.2383
14.2947
14.3532
14.412
14.4695
14.5231
14.8108
14.6393
14.4787
14.329
14.1915
14.0683
13.9616
13.8717
13.7984
13.7398
13.6942
13.66
13.6345
13.6166
13.6047
13.5973
13.5933
13.5923
14.8107
14.6382
14.4765
14.3249
14.1827
14.0499
13.9266
13.8133
13.7101
13.6169
13.5333
13.4586
13.3921
13.3329
13.2801
13.2331
13.1908
13.152
14.8106
14.6375
14.475
14.3224
14.1789
14.0439
13.9169
13.7975
13.6857
13.5813
13.484
13.3936
13.3098
13.2321
13.1602
13.0935
13.0316
12.9739
14.8105
14.637
14.474
14.3207
14.1766
14.0407
13.9126
13.7917
13.6776
13.57
13.4685
13.373
13.283
13.1984
13.1189
13.044
12.9736
12.9072
14.8104
14.6366
14.4731
14.3193
14.1746
14.0381
13.9093
13.7877
13.6726
13.5639
13.4609
13.3635
13.2713
13.184
13.1012
13.0228
12.9485
12.878
14.8104
14.6363
14.4725
14.3182
14.1729
14.0359
13.9066
13.7844
13.6689
13.5595
13.4559
13.3577
13.2646
13.1763
13.0924
13.0128
12.937
12.865
14.8104
14.6361
14.4719
14.3174
14.1717
14.0343
13.9045
13.7819
13.6659
13.556
13.452
13.3533
13.2597
13.1708
13.0864
13.0062
12.9299
12.8573
14.8103
14.6359
14.4716
14.3167
14.1708
14.033
13.9029
13.7799
13.6636
13.5534
13.4489
13.3499
13.2559
13.1667
13.0819
13.0012
12.9245
12.8516
14.8103
14.6358
14.4714
14.3164
14.1702
14.0322
13.9019
13.7786
13.662
13.5515
13.4468
13.3475
13.2532
13.1637
13.0786
12.9977
12.9207
12.8475
14.8103
14.6358
14.4713
14.3163
14.17
14.0319
13.9015
13.7781
13.6613
13.5506
13.4457
13.3462
13.2518
13.162
13.0768
12.9957
12.9185
12.8451
14.8104
14.6359
14.4715
14.3165
14.1703
14.0323
13.9019
13.7785
13.6617
13.5511
13.4461
13.3466
13.2521
13.1623
13.077
12.9959
12.9187
12.8453
14.8104
14.6361
14.4718
14.317
14.171
14.0332
13.9029
13.7797
13.6631
13.5526
13.4478
13.3483
13.2539
13.1643
13.079
12.998
12.921
12.8477
14.8104
14.6363
14.4723
14.3178
14.1722
14.0347
13.9048
13.7819
13.6656
13.5554
13.451
13.352
13.2582
13.1693
13.0849
13.0049
12.9289
12.8569
14.8105
14.6367
14.4731
14.3192
14.1741
14.0373
13.9082
13.7866
13.6721
13.5645
13.4635
13.3688
13.2803
13.1975
13.1201
13.0478
12.9803
12.9173
14.8106
14.6373
14.4745
14.3215
14.1786
14.0464
13.9257
13.8168
13.7198
13.634
13.5588
13.4931
13.4358
13.3861
13.343
13.3057
13.2734
13.2457
14.8103
14.6381
14.4776
14.3361
14.2214
14.14
14.0885
14.0644
14.0635
14.0777
14.1058
14.1434
14.1881
14.2379
14.2912
14.347
14.4045
14.4633
14.8046
14.6393
14.532
14.5363
14.6445
14.84
15.0805
15.3464
15.6241
15.9059
16.1877
16.467
16.7422
17.0122
17.2761
17.5334
17.7839
18.028
14.7565
14.781
15.2356
16.095
17.083
18.0842
19.0596
20.004
20.924
21.8266
22.7162
23.594
24.4587
25.3084
26.141
26.9545
27.7483
28.5228
14.6506
16.6902
20.4525
24.0958
27.3637
30.3893
33.3488
36.3748
39.5362
42.8451
46.2793
49.801
53.3707
56.9542
60.5255
64.0672
67.5686
71.0258
25.2545
36.7587
52.7225
64.3278
75.4634
88.9391
105.768
126.178
149.551
174.864
201.071
227.315
252.996
277.751
301.398
323.876
345.195
365.398
660.187
256.982
290.808
361.73
482.924
657.289
859.989
1059.65
1233.59
1372.93
1478.76
1556.68
1613.12
1653.66
1682.64
1703.21
1717.63
1727.51
2.40579
1.41316
2.80806
3.97518
4.98791
5.96316
6.96583
8.02571
9.18001
10.4503
11.8502
13.3834
15.06
16.8782
18.8407
20.9503
23.1998
25.5913
28.1138
30.7672
33.5423
36.4245
39.417
42.5084
45.6842
48.9499
52.2946
55.7117
59.1962
62.7427
66.3465
70.0026
73.7053
77.4507
81.2461
85.0627
88.9044
92.7826
96.6608
100.563
104.448
108.332
112.189
115.992
119.772
123.505
127.156
130.762
134.166
137.321
139.94
141.803
142.434
141.869
139.452
135.591
131.335
133.305
135.447
144.663
154.931
679.215
157.86
157.671
156.706
150.853
155.172
717.358
790.607
767.764
162.772
157.323
154.695
164.148
767.625
799.492
887.365
817.69
815.429
166.14
740.508
766.661
791.268
815.957
841.062
866.487
892.204
918.134
944.271
970.786
997.309
1023.61
1049.74
1075.73
1101.43
1126.87
1151.95
1176.53
1200.43
1223.83
1246.54
1268.53
1289.74
1309.89
1328.68
1346.28
1362.35
1376.92
1389.69
1400.73
1409.83
1416.85
1421.82
1424.15
1424.25
1421.84
1417.12
1410.35
1400.94
1389.12
1374.95
1358.28
1338.22
1311.98
1272.77
1209.67
1183.79
1982.68
1641.07
1987.88
1955.05
1916.96
1929.31
1896.37
1867.83
1866.44
1833.68
1785.81
1737.23
1690.12
1644.43
1600.21
1557.26
1516.58
1477.44
1441.46
1405.5
124.38
147.541
1639.74
1335.68
1173.05
1181.01
1645.14
1305.61
1214.97
241.122
1101.15
1092.59
1079.99
248.508
234.146
206.065
194.509
187.859
1309.82
1527.25
1518.37
1508.1
1495.18
1482.34
1471.91
206.991
183.082
183.75
183.532
183.293
182.893
182.01
180.43
7.79238
2.14871
2.19351
2.48714
2.88619
3.36651
3.92184
4.54992
5.25021
6.02257
6.86652
7.78095
8.76451
9.81568
10.9332
12.1154
13.36
14.6643
16.0256
17.441
18.9081
20.4238
21.986
23.5925
25.241
26.9303
28.6586
30.4241
32.226
34.0625
35.9325
37.8347
39.7672
41.7289
43.7189
45.735
47.7751
49.8368
51.9183
54.0156
56.1259
58.2446
60.3709
62.5034
64.6463
66.8021
68.9758
71.1698
73.3783
75.592
77.7969
79.9862
82.1667
84.3826
86.7095
89.341
92.5794
96.6767
101.018
105.741
113.966
120.197
114.35
122
132.655
143.111
158.072
176.359
181.113
167.316
151.752
159.117
173.262
190.959
201.342
211.418
223.345
223.019
218.504
216.611
229.259
236.056
242.67
249.311
256.03
262.811
269.641
276.512
283.417
290.382
297.328
304.276
311.251
318.244
325.178
332.032
338.789
345.453
351.914
358.315
364.554
370.604
376.435
382.015
387.297
392.258
396.879
401.098
404.911
408.26
411.131
413.496
415.296
416.499
417.104
417.169
416.611
415.444
413.628
411.191
408.135
404.407
399.885
394.288
387.649
384.772
412.918
520.498
517.293
563.948
561.093
551.161
555.875
561.907
561.644
562.537
559.981
549.93
537.19
524.45
512.088
499.959
488.21
476.892
466.008
454.363
426.831
253.858
211.945
390.778
392.797
264.805
258.35
396.722
415.525
344.881
208.683
232.56
234.289
232.154
197.373
186.524
180.707
166.272
168.668
332.046
422.848
427.919
424.686
420.99
417.342
402.421
209.866
154.586
151.862
151.079
150.443
149.724
148.974
148.28
14.0952
3.73271
3.28995
3.37947
3.6609
4.06249
4.56066
5.1447
5.80748
6.54282
7.34447
8.20705
9.12579
10.0966
11.1168
12.1837
13.2944
14.4472
15.6387
16.8651
18.1245
19.4178
20.7439
22.1018
23.4908
24.9105
26.3601
27.8389
29.3464
30.8822
32.4462
34.0377
35.6562
37.3016
38.9736
40.6721
42.3967
44.1476
45.9252
47.7291
49.5598
51.4177
53.3045
55.2233
57.1785
59.177
61.228
63.3429
65.5371
67.8318
70.2582
72.8586
75.6769
78.7309
81.9795
85.294
88.4878
91.448
94.2958
97.3455
100.72
104.029
107.691
112.222
116.836
121.158
125.729
130.416
134.25
136.875
140.154
144.914
150.247
155.376
159.803
164.449
169.587
173.934
178.169
183.137
188.535
193.62
198.708
203.839
209.014
214.233
219.488
224.774
230.087
235.427
240.778
246.13
251.478
256.807
262.098
267.335
272.506
277.617
282.508
287.358
292.109
296.724
301.176
305.443
309.498
313.315
316.875
320.146
323.107
325.73
327.991
329.865
331.327
332.359
332.942
333.103
332.81
332.046
330.811
329.115
326.973
324.389
321.377
317.929
314.169
311.36
314.577
326.178
327.107
330.819
327.595
322.535
319.913
318.139
315.187
311.784
308.037
302.777
296.868
290.964
285.223
279.624
274.203
268.98
263.96
258.698
248.833
219.357
209.459
232.549
233.576
215.69
213.117
228.239
232.578
218.6
201.329
200.709
198.724
196.84
192.634
191.885
186.515
175.17
173.669
200.524
220.195
221.536
220.081
218.487
216.76
211.023
176.347
161.263
159.903
158.827
157.826
156.834
155.894
155.205
20.6371
5.428
4.50679
4.42823
4.62554
4.97786
5.44333
6.00301
6.64567
7.36254
8.14598
8.98886
9.88493
10.8289
11.8162
12.8434
13.9073
15.0055
16.1366
17.2994
18.493
19.7159
20.9676
22.2483
23.5583
24.8976
26.2657
27.6619
29.0859
30.537
32.0169
33.5258
35.0638
36.6315
38.2292
39.8575
41.5173
43.2099
44.9372
46.7007
48.5031
50.3472
52.2365
54.1754
56.1692
58.2236
60.3452
62.5411
64.8193
67.1919
69.6776
72.3007
75.085
78.0339
81.1163
84.2526
87.3386
90.3216
93.2522
96.2487
99.401
102.724
106.237
109.882
113.507
117.057
120.666
124.475
128.427
132.4
136.421
140.523
144.664
148.781
152.888
157.15
161.637
166.215
170.837
175.525
180.234
184.941
189.679
194.457
199.275
204.131
209.021
213.94
218.885
223.855
228.838
233.824
238.805
243.769
248.706
253.602
258.446
263.241
267.814
272.347
276.805
281.153
285.366
289.42
293.294
296.962
300.402
303.589
306.5
309.109
311.394
313.331
314.899
316.077
316.853
317.213
317.17
316.687
315.769
314.423
312.663
310.511
308.01
305.225
302.276
299.46
297.53
296.387
293.975
291.425
287.579
283.157
278.991
275.016
270.847
266.545
262.181
257.58
252.906
248.297
243.805
239.443
235.226
231.163
227.252
223.43
219.125
212.876
209.173
209.375
207.433
204.268
202.225
200.966
198.999
196.228
194.267
192.65
190.434
188.7
187.474
187.136
184.61
180.057
177.998
179.917
181.484
180.616
179.309
177.993
176.65
174.541
168.781
165.774
164.801
163.549
162.3
161.092
159.968
159.103
26.9301
7.11931
5.71764
5.47477
5.59105
5.89602
6.32927
6.8638
7.48448
8.18079
8.94422
9.76731
10.6434
11.5669
12.5328
13.5374
14.5777
15.6514
16.7568
17.893
19.0589
20.2543
21.4788
22.7326
24.0157
25.3283
26.6708
28.0435
29.447
30.8818
32.3486
33.8478
35.3798
36.9459
38.5469
40.184
41.8587
43.5727
45.3287
47.1287
48.9763
50.8746
52.8278
54.8403
56.9165
59.0609
61.2781
63.5716
65.9447
68.3997
70.9412
73.5765
76.3143
79.1578
82.0977
85.109
88.1599
91.2307
94.3308
97.4906
100.738
104.083
107.518
111.027
114.583
118.177
121.837
125.605
129.488
133.457
137.481
141.554
145.677
149.857
154.104
158.441
162.881
167.404
171.984
176.609
181.273
185.976
190.722
195.512
200.343
205.214
210.121
215.059
220.027
225.021
230.031
235.047
240.063
245.07
250.059
255.018
259.936
264.815
269.47
274.082
278.636
283.099
287.445
291.65
295.692
299.547
303.193
306.604
309.757
312.625
315.184
317.41
319.279
320.772
321.869
322.555
322.817
322.655
322.051
321.013
319.551
317.686
315.461
312.946
310.255
307.52
304.849
302.108
298.968
295.441
291.411
287.067
282.665
278.248
273.776
269.262
264.733
260.187
255.672
251.231
246.894
242.679
238.596
234.654
230.847
227.176
223.674
220.321
217.227
214.313
211.581
209.337
207.041
204.372
201.85
200.053
198.745
196.86
194.749
192.962
191.634
190.66
189.076
186.941
185.15
183.444
181.843
180.341
178.866
177.381
175.871
174.303
172.655
171.387
170.069
168.559
167.04
165.572
164.195
162.994
32.6952
8.72351
6.85731
6.45315
6.49018
6.74757
7.14757
7.6552
8.25166
8.92484
9.66574
10.4667
11.3214
12.2243
13.1706
14.1566
15.1794
16.2367
17.3269
18.4489
19.6023
20.7866
22.0018
23.2483
24.5263
25.8363
27.1791
28.5552
29.9655
31.4106
32.8917
34.4096
35.9651
37.5599
39.195
40.8719
42.5925
44.3586
46.173
48.0378
49.9564
51.9319
53.9678
56.068
58.2361
60.4753
62.7886
65.1778
67.6441
70.1874
72.8081
75.5074
78.2881
81.1519
84.0988
87.1238
90.219
93.3784
96.6028
99.8967
103.266
106.714
110.238
113.835
117.502
121.238
125.051
128.948
132.935
137.006
141.154
145.373
149.665
154.03
158.471
162.989
167.582
172.244
176.968
181.749
186.583
191.469
196.406
201.391
206.422
211.497
216.612
221.762
226.945
232.16
237.395
242.642
247.895
253.148
258.392
263.617
268.811
273.978
278.911
283.803
288.649
293.419
298.088
302.63
307.024
311.246
315.272
319.076
322.633
325.916
328.896
331.549
333.847
335.767
337.285
338.383
339.042
339.249
339.003
338.294
337.13
335.528
333.522
331.166
328.55
325.769
322.872
319.789
316.39
312.617
308.474
304.069
299.533
294.926
290.266
285.577
280.883
276.205
271.572
267.013
262.552
258.207
253.988
249.905
245.953
242.131
238.475
235.039
231.744
228.525
225.545
222.857
220.246
217.615
215.118
212.923
210.909
208.738
206.564
204.576
202.833
201.267
199.609
197.831
196.02
194.031
192.09
190.306
188.537
186.743
184.909
183.048
181.288
179.588
177.784
175.908
174.041
172.226
170.495
168.874
37.751
10.1863
7.88654
7.32717
7.28816
7.49857
7.86507
8.34528
8.91684
9.56609
10.2834
11.0613
11.8937
12.7753
13.7018
14.6698
15.6764
16.7195
17.7976
18.9099
20.0558
21.2351
22.4479
23.6948
24.9761
26.2925
27.6452
29.0347
30.4622
31.9287
33.4355
34.9837
36.5744
38.2096
39.8904
41.6188
43.3964
45.2252
47.1081
49.047
51.0448
53.1044
55.2287
57.4208
59.6836
62.0193
64.4303
66.9177
69.4826
72.125
74.8449
77.6425
80.5197
83.4771
86.5166
89.6384
92.8412
96.1234
99.4859
102.929
106.453
110.061
113.751
117.524
121.379
125.316
129.339
133.45
137.651
141.941
146.318
150.779
155.324
159.95
164.657
169.442
174.305
179.24
184.244
189.313
194.445
199.637
204.886
210.189
215.543
220.945
226.392
231.88
237.404
242.964
248.549
254.153
259.769
265.391
271.013
276.625
282.216
287.79
293.12
298.406
303.656
308.843
313.941
318.927
323.776
328.465
332.971
337.265
341.322
345.111
348.604
351.77
354.583
357.009
359.025
360.604
361.725
362.369
362.522
362.181
361.344
360.02
358.234
356.029
353.467
350.622
347.538
344.203
340.556
336.569
332.258
327.696
322.971
318.14
313.236
308.295
303.347
298.418
293.535
288.724
284.006
279.399
274.918
270.569
266.354
262.273
258.337
254.578
250.997
247.581
244.341
241.263
238.322
235.503
232.794
230.198
227.694
225.221
222.81
220.519
218.363
216.305
214.258
212.181
210.061
207.866
205.683
203.541
201.383
199.192
196.96
194.68
192.4
190.125
187.824
185.509
183.21
180.961
178.785
176.668
41.9967
11.4727
8.7827
8.07959
7.96807
8.13293
8.46653
8.91963
9.46658
10.0921
10.786
11.5409
12.3508
13.2109
14.1173
15.0669
16.0571
17.0861
18.1525
19.2556
20.395
21.5706
22.7827
24.032
25.3188
26.6443
28.0095
29.4153
30.8632
32.3543
33.8901
35.472
37.1013
38.7801
40.51
42.2926
44.13
46.0242
47.9778
49.9928
52.0718
54.2173
56.4319
58.7183
61.0787
63.5151
66.0296
68.6233
71.2978
74.0535
76.891
79.8116
82.8166
85.907
89.0849
92.352
95.7084
99.1548
102.693
106.322
110.045
113.861
117.772
121.777
125.877
130.072
134.364
138.754
143.243
147.83
152.513
157.292
162.163
167.126
172.178
177.318
182.541
187.845
193.226
198.682
204.208
209.801
215.458
221.175
226.947
232.772
238.647
244.565
250.524
256.521
262.548
268.596
274.661
280.737
286.818
292.894
298.958
305.012
310.81
316.557
322.275
327.938
333.522
339.002
344.357
349.564
354.595
359.426
364.027
368.37
372.422
376.151
379.524
382.506
385.067
387.176
388.805
389.929
390.531
390.593
390.115
389.097
387.555
385.522
383.044
380.18
376.975
373.444
369.58
365.378
360.863
356.091
351.126
346.021
340.822
335.568
330.295
325.033
319.813
314.658
309.592
304.634
299.796
295.091
290.524
286.095
281.815
277.699
273.765
270.007
266.407
262.945
259.62
256.429
253.347
250.355
247.442
244.601
241.829
239.146
236.551
234.017
231.497
228.959
226.391
223.797
221.197
218.593
215.964
213.302
210.6
207.847
205.058
202.25
199.433
196.615
193.815
191.061
188.366
185.698
45.3859
12.5629
9.53471
8.70286
8.52374
8.64544
8.9473
9.37405
9.89704
10.4995
11.1707
11.9031
12.6908
13.5295
14.4156
15.3464
16.3196
17.3336
18.3875
19.4805
20.6124
21.7835
22.994
24.2448
25.5364
26.8701
28.2472
29.6688
31.1365
32.6517
34.216
35.8311
37.4986
39.2206
40.999
42.8356
44.7325
46.6918
48.7162
50.8075
52.9684
55.2011
57.5081
59.8921
62.355
64.899
67.5261
70.2378
73.0362
75.9223
78.8978
81.9641
85.1235
88.3771
91.7275
95.1767
98.7262
102.377
106.132
109.992
113.957
118.03
122.211
126.501
130.901
135.409
140.028
144.758
149.599
154.551
159.611
164.779
170.052
175.428
180.904
186.477
192.145
197.904
203.749
209.677
215.683
221.764
227.914
234.129
240.404
246.736
253.118
259.546
266.016
272.526
279.065
285.625
292.202
298.79
305.384
311.975
318.556
325.132
331.436
337.678
343.889
350.048
356.132
362.118
367.985
373.71
379.27
384.638
389.785
394.681
399.294
403.589
407.53
411.08
414.201
416.858
419.016
420.646
421.718
422.214
422.122
421.435
420.162
418.328
415.972
413.14
409.878
406.218
402.179
397.78
393.051
388.041
382.807
377.403
371.875
366.27
360.626
354.979
349.364
343.803
338.324
332.946
327.685
322.554
317.561
312.712
308.015
303.478
299.113
294.917
290.875
286.968
283.193
279.545
276.007
272.562
269.196
265.904
262.681
259.53
256.442
253.394
250.354
247.295
244.213
241.109
237.989
234.851
231.684
228.484
225.242
221.954
218.623
215.261
211.887
208.512
205.155
201.839
198.572
195.312
47.9139
13.4485
10.1399
9.19673
8.95668
9.03826
9.30983
9.71112
10.2109
10.791
11.4401
12.1505
12.9166
13.7341
14.5998
15.5113
16.4668
17.465
18.5049
19.5863
20.7092
21.874
23.0812
24.3316
25.626
26.9658
28.3526
29.7881
31.2738
32.8111
34.4021
36.0487
37.7526
39.5166
41.3423
43.2322
45.1883
47.2128
49.3087
51.4779
53.7231
56.0466
58.4511
60.9392
63.5132
66.1754
68.9281
71.7735
74.7142
77.7518
80.8885
84.1267
87.4693
90.9178
94.4752
98.1443
101.927
105.825
109.842
113.978
118.236
122.616
127.121
131.752
136.508
141.389
146.398
151.533
156.794
162.181
167.691
173.323
179.074
184.942
190.923
197.014
203.211
209.508
215.902
222.387
228.959
235.612
242.339
249.135
255.992
262.907
269.872
276.881
283.93
291.015
298.126
305.252
312.389
319.531
326.673
333.806
340.926
348.04
354.861
361.604
368.303
374.943
381.504
387.966
394.31
400.513
406.556
412.413
418.057
423.459
428.585
433.402
437.871
441.953
445.608
448.794
451.47
453.598
455.144
456.078
456.38
456.039
455.052
453.438
451.23
448.468
445.197
441.457
437.282
432.704
427.763
422.507
416.993
411.273
405.398
399.417
393.376
387.311
381.262
375.254
369.317
363.473
357.74
352.132
346.658
341.33
336.152
331.131
326.274
321.576
317.031
312.619
308.335
304.173
300.117
296.157
292.274
288.465
284.717
281.031
277.392
273.781
270.173
266.544
262.891
259.212
255.509
251.78
248.018
244.222
240.385
236.503
232.578
228.619
224.644
220.668
216.711
212.792
208.917
205.039
49.6056
14.1285
10.6013
9.56635
9.27306
9.31823
9.56123
9.93797
10.4151
10.9735
11.6011
12.29
13.0348
13.8313
14.6767
15.5689
16.506
17.4876
18.5129
19.5817
20.6941
21.8509
23.0527
24.3007
25.596
26.9402
28.3352
29.7826
31.2845
32.8426
34.4592
36.1362
37.8761
39.6818
41.5556
43.4999
45.5172
47.6101
49.7816
52.0338
54.3699
56.7925
59.3044
61.9087
64.608
67.4051
70.3027
73.3037
76.4112
79.6276
82.9559
86.399
89.9604
93.6422
97.4482
101.381
105.444
109.639
113.97
118.438
123.046
127.794
132.686
137.721
142.901
148.226
153.695
159.31
165.068
170.969
177.01
183.19
189.505
195.951
202.524
209.22
216.034
222.959
229.991
237.123
244.347
251.658
259.045
266.503
274.022
281.596
289.216
296.874
304.563
312.282
320.013
327.749
335.482
343.206
350.913
358.6
366.259
373.901
381.23
388.449
395.601
402.676
409.658
416.527
423.27
429.866
436.299
442.546
448.584
454.389
459.926
465.164
470.069
474.6
478.709
482.355
485.491
488.073
490.055
491.404
492.09
492.089
491.384
489.996
487.949
485.281
482.029
478.241
473.956
469.219
464.074
458.575
452.776
446.733
440.501
434.135
427.682
421.181
414.674
408.196
401.774
395.432
389.193
383.071
377.081
371.23
365.527
359.973
354.579
349.334
344.239
339.273
334.432
329.708
325.087
320.557
316.104
311.72
307.392
303.115
298.876
294.655
290.43
286.185
281.912
277.608
273.274
268.909
264.506
260.069
255.591
251.069
246.508
241.914
237.304
232.695
228.107
223.557
219.048
214.537
50.5094
14.6088
10.9257
9.81951
9.48146
9.49472
9.71137
10.0648
10.52
11.0571
11.6638
12.3318
13.0559
13.8324
14.6581
15.5306
16.449
17.4128
18.422
19.4766
20.5773
21.7249
22.9205
24.1654
25.4612
26.8097
28.2131
29.6733
31.1927
32.7737
34.4188
36.1295
37.9082
39.7594
41.686
43.6908
45.7765
47.9463
50.2035
52.5508
54.9916
57.5292
60.1668
62.908
65.756
68.7142
71.786
74.9748
78.2844
81.7182
85.2798
88.9725
92.8007
96.767
100.876
105.131
109.535
114.091
118.803
123.672
128.702
133.894
139.25
144.771
150.458
156.309
162.327
168.511
174.857
181.365
188.031
194.854
201.828
208.948
216.211
223.609
231.136
238.786
246.549
254.419
262.387
270.442
278.575
286.777
295.035
303.341
311.683
320.051
328.437
336.835
345.229
353.606
361.958
370.276
378.553
386.783
394.96
403.1
410.899
418.546
426.088
433.519
440.827
447.997
455.017
461.873
468.554
475.041
481.316
487.359
493.144
498.645
503.827
508.653
513.082
517.064
520.551
523.493
525.836
527.537
528.555
528.86
528.417
527.235
525.344
522.772
519.554
515.736
511.36
506.479
501.14
495.402
489.323
482.962
476.376
469.622
462.751
455.808
448.838
441.877
434.956
428.103
421.339
414.684
408.152
401.75
395.492
389.375
383.41
377.588
371.908
366.354
360.919
355.595
350.37
345.231
340.165
335.163
330.21
325.301
320.42
315.549
310.672
305.771
300.839
295.872
290.871
285.833
280.757
275.644
270.492
265.299
260.072
254.816
249.547
244.283
239.044
233.847
228.693
223.543
50.663
14.8994
11.1221
9.96586
9.59292
9.57906
9.77204
10.1036
10.5383
11.0555
11.6422
12.2898
12.9933
13.7492
14.5551
15.4092
16.3107
17.259
18.2542
19.2969
20.388
21.5286
22.7201
23.9645
25.2635
26.6194
28.0347
29.5119
31.0537
32.6628
34.3424
36.0953
37.9234
39.831
41.8229
43.9023
46.0728
48.3377
50.7012
53.1666
55.7379
58.419
61.2139
64.1269
67.1618
70.3229
73.6142
77.04
80.6051
84.313
88.1684
92.1753
96.3388
100.662
105.149
109.806
114.634
119.637
124.82
130.184
135.732
141.466
147.387
153.496
159.795
166.281
172.956
179.816
186.86
194.086
201.488
209.063
216.806
224.71
232.768
240.973
249.318
257.792
266.383
275.085
283.887
292.772
301.732
310.753
319.819
328.921
338.042
347.171
356.294
365.405
374.485
383.518
392.491
401.395
410.221
418.96
427.61
436.187
444.39
452.385
460.221
467.895
475.398
482.722
489.856
496.795
503.528
510.05
516.345
522.405
528.213
533.748
538.983
543.891
548.432
552.561
556.228
559.378
561.949
563.892
565.154
565.696
565.464
564.44
562.675
560.184
556.997
553.153
548.697
543.684
538.162
532.199
525.85
519.18
512.249
505.115
497.835
490.457
483.028
475.586
468.167
460.8
453.507
446.311
439.228
432.266
425.437
418.742
412.188
405.769
399.484
393.318
387.265
381.317
375.461
369.684
363.975
358.323
352.714
347.142
341.591
336.041
330.483
324.897
319.279
313.623
307.928
302.195
296.423
290.615
284.769
278.886
272.976
267.042
261.103
255.175
249.278
243.426
237.626
231.841
50.2407
15.0123
11.2014
10.0165
9.61906
9.58423
9.75745
10.0693
10.484
10.9814
11.5489
12.1784
12.8644
13.6036
14.3936
15.233
16.1212
17.0581
18.0441
19.0799
20.167
21.3069
22.5013
23.7528
25.0635
26.4363
27.8743
29.3802
30.958
32.6102
34.3401
36.1509
38.0479
40.0362
42.1198
44.3028
46.5895
48.9842
51.4921
54.1173
56.8647
59.739
62.7452
65.8882
69.1731
72.6046
76.188
79.9282
83.8309
87.9003
92.1417
96.5597
101.16
105.946
110.922
116.094
121.465
127.037
132.816
138.802
144.998
151.406
158.026
164.859
171.905
179.161
186.627
194.298
202.173
210.247
218.512
226.966
235.6
244.405
253.373
262.493
271.758
281.152
290.666
300.286
309.997
319.785
329.635
339.531
349.456
359.393
369.326
379.236
389.109
398.934
408.693
418.36
427.925
437.372
446.69
455.869
464.906
473.822
482.325
490.551
498.544
506.308
513.837
521.123
528.166
534.961
541.507
547.805
553.851
559.646
565.185
570.46
575.457
580.16
584.536
588.552
592.156
595.299
597.911
599.932
601.299
601.96
601.849
600.916
599.225
596.781
593.604
589.728
585.194
580.057
574.368
568.192
561.592
554.63
547.373
539.879
532.21
524.415
516.545
508.639
500.736
492.867
485.057
477.33
469.7
462.18
454.782
447.504
440.358
433.336
426.438
419.651
412.968
406.382
399.879
393.45
387.08
380.762
374.478
368.223
361.983
355.739
349.482
343.197
336.878
330.517
324.116
317.677
311.198
304.685
298.137
291.559
284.961
278.347
271.736
265.144
258.591
252.092
245.654
239.245
49.1314
14.9722
11.1795
9.98539
9.57313
9.52148
9.67787
9.97369
10.373
10.8555
11.4086
12.0246
12.6983
13.4266
14.2073
15.0395
15.9228
16.8575
17.8444
18.8848
19.9805
21.1334
22.3461
23.6217
24.9627
26.3726
27.8544
29.4115
31.0497
32.7733
34.5874
36.4968
38.5055
40.6195
42.8437
45.1836
47.6447
50.2326
52.9536
55.8128
58.8164
61.9701
65.28
68.7522
72.3925
76.2067
80.201
84.3811
88.7531
93.3222
98.0938
103.073
108.265
113.674
119.305
125.161
131.247
137.563
144.115
150.902
157.925
165.185
172.682
180.415
188.381
196.575
204.998
213.642
222.501
231.571
240.841
250.306
259.954
269.776
279.76
289.893
300.165
310.557
321.056
331.649
342.315
353.039
363.801
374.584
385.365
396.129
406.85
417.51
428.087
438.572
448.941
459.166
469.229
479.116
488.812
498.303
507.585
516.686
525.324
533.606
541.57
549.222
556.557
563.573
570.27
576.651
582.721
588.491
593.969
599.165
604.091
608.752
613.156
617.299
621.167
624.738
627.977
630.827
633.226
635.105
636.391
637.018
636.891
635.949
634.259
631.81
628.612
624.69
620.078
614.826
608.988
602.622
595.796
588.571
581.018
573.198
565.171
556.99
548.71
540.372
532.015
523.673
515.37
507.133
498.978
490.918
482.965
475.12
467.39
459.773
452.268
444.863
437.551
430.326
423.176
416.091
409.054
402.063
395.098
388.156
381.222
374.278
367.319
360.329
353.304
346.237
339.13
331.985
324.802
317.587
310.343
303.076
295.796
288.511
281.239
273.995
266.8
259.669
252.61
245.598
47.4496
14.761
11.0501
9.87165
9.45924
9.40173
9.54998
9.83701
10.2279
10.7029
11.2501
11.862
12.5341
13.2635
14.0486
14.8887
15.7841
16.7357
17.7445
18.8125
19.9417
21.1339
22.3933
23.7245
25.1315
26.6187
28.1915
29.855
31.614
33.4742
35.4417
37.5225
39.7229
42.05
44.5105
47.1113
49.8594
52.7619
55.8267
59.0603
62.4702
66.0635
69.8474
73.8291
78.0154
82.4129
87.0283
91.8677
96.9373
102.242
107.787
113.578
119.618
125.91
132.458
139.265
146.331
153.658
161.247
169.095
177.202
185.566
194.183
203.049
212.16
221.508
231.088
240.891
250.91
261.135
271.554
282.157
292.931
303.864
314.94
326.146
337.465
348.881
360.374
371.928
383.524
395.14
406.756
418.35
429.9
441.385
452.779
464.058
475.201
486.187
496.996
507.601
517.974
528.096
537.956
547.533
556.823
565.859
574.381
582.459
590.127
597.388
604.239
610.681
616.717
622.355
627.608
632.491
637.027
641.238
645.151
648.793
652.188
655.355
658.307
661.039
663.533
665.749
667.623
669.084
670.052
670.447
670.115
669.044
667.262
664.744
661.481
657.49
652.796
647.442
641.473
634.948
627.929
620.482
612.673
604.568
596.227
587.706
579.058
570.329
561.557
552.779
544.019
535.306
526.655
518.081
509.597
501.203
492.911
484.712
476.615
468.601
460.669
452.812
445.018
437.28
429.579
421.917
414.272
406.643
399.016
391.374
383.714
376.023
368.297
360.53
352.723
344.881
337.004
329.1
321.174
313.231
305.288
297.35
289.434
281.559
273.744
266.005
258.352
250.766
45.4383
14.4016
10.8276
9.69085
9.29553
9.24624
9.39986
9.69207
10.0896
10.5738
11.1337
11.7626
12.4564
13.2126
14.0293
14.9072
15.8478
16.8534
17.9262
19.0694
20.2869
21.5828
22.9614
24.4279
25.9876
27.6471
29.4131
31.2921
33.292
35.4204
37.6856
40.0958
42.6595
45.3862
48.2844
51.3633
54.6319
58.0992
61.775
65.667
69.7844
74.1354
78.7277
83.5694
88.6671
94.0267
99.6542
105.554
111.732
118.19
124.931
131.957
139.27
146.869
154.752
162.92
171.369
180.095
189.095
198.363
207.892
217.676
227.707
237.978
248.477
259.194
270.12
281.243
292.551
304.031
315.668
327.451
339.362
351.387
363.51
375.714
387.981
400.292
412.628
424.97
437.296
449.586
461.817
473.964
486.004
497.918
509.679
521.26
532.636
543.784
554.681
565.302
575.618
585.604
595.244
604.519
613.421
621.995
630.002
637.48
644.456
650.933
656.907
662.381
667.36
671.855
675.886
679.475
682.654
685.459
687.932
690.117
692.062
693.812
695.408
696.874
698.216
699.411
700.409
701.133
701.498
701.396
700.673
699.348
697.37
694.709
691.34
687.265
682.494
677.059
670.998
664.36
657.206
649.596
641.596
633.271
624.683
615.888
606.939
597.882
588.758
579.602
570.441
561.303
552.205
543.162
534.188
525.283
516.459
507.712
499.045
490.447
481.915
473.444
465.022
456.644
448.294
439.971
431.657
423.352
415.042
406.714
398.366
389.986
381.573
373.12
364.632
356.113
347.563
338.994
330.409
321.819
313.239
304.677
296.15
287.676
279.275
270.964
262.754
254.632
43.3328
13.9732
10.5639
9.48902
9.12909
9.10676
9.28593
9.60556
10.0345
10.5541
11.1541
11.8306
12.5811
13.4048
14.3021
15.2743
16.3233
17.4526
18.6663
19.9693
21.3672
22.8664
24.4739
26.1976
28.0455
30.0268
32.1513
34.4286
36.8695
39.4848
42.286
45.2843
48.4909
51.9184
55.5778
59.4804
63.6373
68.0587
72.7559
77.7367
83.0101
88.583
94.4621
100.653
107.158
113.982
121.124
128.585
136.366
144.461
152.868
161.582
170.599
179.908
189.505
199.381
209.524
219.925
230.575
241.461
252.57
263.89
275.41
287.115
298.993
311.028
323.209
335.521
347.949
360.479
373.096
385.786
398.532
411.319
424.131
436.951
449.763
462.546
475.283
487.954
500.541
513.021
525.374
537.576
549.601
561.431
573.043
584.409
595.505
606.307
616.789
626.928
636.695
646.065
655.014
663.524
671.587
679.254
686.317
692.785
698.681
704.005
708.755
712.931
716.541
719.6
722.131
724.162
725.731
726.881
727.675
728.158
728.408