/*--------------------------------*- C++ -*----------------------------------*\
  =========                 |
  \\      /  F ield         | OpenFOAM: The Open Source CFD Toolbox
   \\    /   O peration     | Website:  https://openfoam.org
    \\  /    A nd           | Version:  7
     \\/     M anipulation  |
\*---------------------------------------------------------------------------*/
FoamFile
{
    version     2.0;
    format      ascii;
    class       volScalarField;
    location    "400";
    object      k;
}
// * * * * * * * * * * * * * * * * * * * * * * * * * * * * * * * * * * * * * //

dimensions      [0 2 -2 0 0 0 0];

internalField   nonuniform List<scalar> 
48900
(
0.585485
0.308414
0.266384
0.26813
0.316183
0.388485
0.45006
0.491553
0.516585
0.531476
0.540966
0.547682
0.552949
0.557412
0.561299
0.564632
0.567592
0.570086
0.394163
0.535256
0.532864
0.556118
0.63393
0.735262
0.831237
0.91103
0.974904
1.02662
1.06965
1.10638
1.13819
1.166
1.19035
1.21153
1.22973
1.24451
0.376428
0.406911
0.414971
0.415555
0.415196
0.417065
0.422412
0.430584
0.441254
0.454235
0.469462
0.486807
0.50604
0.526821
0.548718
0.571205
0.593637
0.615136
0.374643
0.382084
0.386176
0.386891
0.385806
0.383548
0.380972
0.378402
0.375996
0.373807
0.371983
0.370617
0.369802
0.369642
0.370047
0.371101
0.37277
0.374946
0.374397
0.37493
0.376327
0.37657
0.375859
0.374268
0.372169
0.369776
0.367222
0.364592
0.361947
0.359338
0.356807
0.354384
0.352103
0.349978
0.348019
0.346223
0.374429
0.372898
0.372347
0.371859
0.371025
0.369772
0.368182
0.366352
0.364361
0.36227
0.360122
0.35795
0.355782
0.353643
0.351547
0.349512
0.347549
0.345665
0.374436
0.372362
0.370806
0.369605
0.368452
0.367197
0.365801
0.36428
0.362661
0.360974
0.359243
0.357489
0.355732
0.353985
0.352261
0.350571
0.348923
0.347323
0.37443
0.37224
0.37029
0.368621
0.367132
0.365715
0.364307
0.362883
0.361436
0.359969
0.35849
0.357008
0.355532
0.354069
0.352628
0.351214
0.349831
0.348483
0.374425
0.372197
0.370127
0.368238
0.366518
0.364924
0.363417
0.361967
0.360556
0.359172
0.357813
0.356476
0.355163
0.353875
0.352615
0.351384
0.350183
0.349013
0.374421
0.37217
0.370059
0.368087
0.366252
0.364539
0.362933
0.361415
0.359971
0.358589
0.35726
0.355977
0.354737
0.353537
0.352374
0.351248
0.350157
0.349097
0.374419
0.372151
0.370018
0.368012
0.366127
0.364353
0.362683
0.361107
0.359617
0.358204
0.356859
0.355578
0.354352
0.353179
0.352054
0.350974
0.349934
0.348931
0.374417
0.372138
0.36999
0.367967
0.366058
0.364256
0.362553
0.360942
0.359418
0.357974
0.356605
0.355305
0.354068
0.352891
0.351767
0.350695
0.349668
0.348683
0.374416
0.37213
0.369972
0.367937
0.366015
0.364197
0.362477
0.360848
0.359304
0.35784
0.356451
0.355133
0.35388
0.352689
0.351555
0.350475
0.349444
0.348458
0.374415
0.372123
0.369957
0.367912
0.365979
0.364149
0.362417
0.360774
0.359216
0.357737
0.356333
0.354998
0.35373
0.352524
0.351376
0.350282
0.34924
0.348245
0.374414
0.372117
0.369945
0.367892
0.365949
0.364111
0.362368
0.360716
0.359147
0.357657
0.356241
0.354895
0.353614
0.352395
0.351234
0.350128
0.349073
0.348066
0.374413
0.372113
0.369936
0.367876
0.365927
0.364081
0.36233
0.36067
0.359093
0.357594
0.356169
0.354814
0.353524
0.352295
0.351124
0.350008
0.348943
0.347927
0.374413
0.37211
0.36993
0.367865
0.365911
0.364059
0.362302
0.360635
0.359052
0.357546
0.356115
0.354752
0.353455
0.352218
0.35104
0.349916
0.348844
0.347821
0.374413
0.372109
0.369926
0.367859
0.365901
0.364045
0.362284
0.360612
0.359024
0.357513
0.356076
0.354709
0.353406
0.352164
0.35098
0.349852
0.348774
0.347746
0.374413
0.372108
0.369925
0.367857
0.365897
0.364039
0.362276
0.360602
0.359011
0.357497
0.356057
0.354686
0.35338
0.352135
0.350948
0.349815
0.348735
0.347704
0.374413
0.37211
0.369928
0.367861
0.365903
0.364046
0.362284
0.36061
0.359019
0.357505
0.356065
0.354693
0.353386
0.35214
0.350952
0.349819
0.348738
0.347707
0.374414
0.372112
0.369933
0.36787
0.365915
0.364061
0.362302
0.360631
0.359043
0.357532
0.356093
0.354723
0.353418
0.352175
0.350989
0.349858
0.348779
0.347749
0.374415
0.372117
0.369942
0.367885
0.365936
0.364089
0.362335
0.36067
0.359088
0.357582
0.35615
0.354787
0.353488
0.352251
0.351072
0.349947
0.348875
0.347851
0.374416
0.372124
0.369957
0.367909
0.36597
0.364135
0.362395
0.360745
0.35918
0.357693
0.356281
0.354937
0.353657
0.352437
0.351273
0.350162
0.349099
0.348083
0.374419
0.372136
0.369982
0.367951
0.366042
0.364248
0.36256
0.360968
0.359461
0.358028
0.356662
0.355354
0.354099
0.352893
0.351732
0.350614
0.349536
0.348496
0.374421
0.372154
0.370037
0.3681
0.366341
0.364723
0.363205
0.361752
0.360344
0.35897
0.357623
0.356302
0.355008
0.353741
0.352502
0.351294
0.350116
0.34897
0.374403
0.372214
0.370412
0.368992
0.367743
0.366505
0.365207
0.363837
0.362406
0.360936
0.359446
0.357952
0.356466
0.354999
0.353557
0.352144
0.350764
0.349421
0.374341
0.372988
0.372901
0.372809
0.37225
0.371192
0.369771
0.368124
0.366368
0.36457
0.362777
0.361011
0.359286
0.357611
0.355988
0.354423
0.352917
0.351473
0.375443
0.379136
0.383349
0.384297
0.38359
0.381797
0.379745
0.377834
0.3762
0.374882
0.373852
0.37307
0.372505
0.372139
0.371958
0.37198
0.372181
0.372589
0.404618
0.415013
0.420713
0.417851
0.414716
0.41548
0.42069
0.430253
0.442789
0.457166
0.472529
0.488307
0.504158
0.519898
0.535436
0.550731
0.565767
0.580532
0.364331
0.560233
0.522895
0.547599
0.630462
0.74312
0.856878
0.954017
1.02871
1.08284
1.12108
1.1481
1.16756
1.182
1.19311
1.20195
1.20919
1.21527
0.00209095
0.00560241
0.0111248
0.015735
0.0197257
0.0235603
0.0274956
0.0316484
0.0361643
0.0411272
0.0465805
0.0525624
0.0590757
0.0661395
0.0737539
0.0819133
0.090616
0.0998387
0.10957
0.119772
0.130425
0.141496
0.152947
0.164758
0.176902
0.189338
0.202053
0.21502
0.22822
0.241632
0.255237
0.269015
0.282944
0.297007
0.311177
0.325454
0.339803
0.354209
0.368664
0.383135
0.397601
0.412003
0.426313
0.440512
0.454534
0.468299
0.481664
0.494349
0.505976
0.515961
0.523692
0.528392
0.529514
0.528953
0.525184
0.522896
0.532545
0.539276
0.552353
0.579361
0.591337
0.572796
0.614885
0.599949
0.586952
0.560131
0.576001
0.568584
0.585428
0.591886
0.625425
0.611131
0.6152
0.606708
0.605552
0.634736
0.672192
0.66922
0.664912
0.648299
0.623811
0.639205
0.652652
0.665824
0.679047
0.692254
0.70552
0.718747
0.731889
0.745135
0.758307
0.771169
0.783793
0.796297
0.808491
0.820448
0.832082
0.843442
0.854393
0.865027
0.875215
0.885059
0.894427
0.903309
0.911467
0.919048
0.925901
0.932053
0.937372
0.941901
0.945485
0.948251
0.949959
0.950618
0.950061
0.948588
0.945872
0.942275
0.937422
0.931413
0.92424
0.915884
0.906309
0.896254
0.887516
0.896495
0.958504
1.15164
1.14159
1.14891
1.12747
1.10671
1.09704
1.08306
1.06522
1.05551
1.04034
1.02237
1.00416
0.986378
0.969075
0.952699
0.938553
0.925509
0.912715
0.898834
0.877933
0.937626
0.921787
0.704721
0.734535
0.382084
0.367387
0.65516
0.77001
0.637771
0.632784
0.333078
0.334835
0.331023
0.621974
0.577373
0.605834
0.939074
0.954714
0.676864
0.668917
0.666064
0.661497
0.657047
0.652816
0.646716
0.870196
0.899769
0.893551
0.891207
0.885715
0.879313
0.87125
0.85721
0.00677261
0.0338896
0.0491779
0.0608252
0.0710339
0.0806011
0.0899777
0.099454
0.109202
0.119317
0.12985
0.140824
0.152235
0.164088
0.176374
0.189078
0.202186
0.215683
0.229546
0.243757
0.25829
0.273125
0.288241
0.303616
0.319229
0.335062
0.351107
0.367343
0.38375
0.400319
0.417036
0.433886
0.450855
0.46794
0.485118
0.502377
0.519702
0.537081
0.554496
0.571932
0.58936
0.606777
0.624153
0.641493
0.658776
0.675995
0.693106
0.710012
0.72653
0.742381
0.757246
0.770927
0.783623
0.795994
0.809906
0.827138
0.848821
0.872113
0.895079
0.915106
0.931484
0.950483
0.972378
0.990207
1.01075
1.03769
1.05711
1.06933
1.08643
1.12128
1.16125
1.19051
1.21469
1.23648
1.2606
1.28312
1.29676
1.32817
1.36541
1.4074
1.43564
1.4648
1.49457
1.52482
1.55534
1.58616
1.61721
1.64845
1.67988
1.71151
1.7433
1.775
1.80665
1.83819
1.86957
1.90073
1.93154
1.96204
1.99166
2.02102
2.05
2.07839
2.10602
2.13277
2.15856
2.18319
2.20651
2.22848
2.24884
2.26755
2.28439
2.29923
2.31197
2.32242
2.33046
2.33603
2.33892
2.33951
2.3374
2.33252
2.32493
2.31468
2.30177
2.28628
2.26829
2.24487
2.20695
2.13062
2.09207
2.05173
2.02227
1.99624
1.96427
1.93091
1.89873
1.8665
1.83575
1.80717
1.77996
1.75343
1.72748
1.70239
1.6783
1.65525
1.63317
1.61261
1.59996
1.67024
1.67383
1.52917
1.49808
1.52179
1.50331
1.44173
1.43284
1.43793
1.48253
1.42561
1.41138
1.40009
1.4296
1.42947
1.43718
1.44417
1.43525
1.33565
1.2859
1.2738
1.26522
1.2576
1.25087
1.25131
1.33516
1.36323
1.35545
1.34798
1.34014
1.33172
1.32204
1.30775
0.0122507
0.0560404
0.0763903
0.0914972
0.104755
0.117275
0.129591
0.142011
0.154712
0.167795
0.181306
0.195256
0.209645
0.224459
0.239686
0.255305
0.271307
0.287668
0.304373
0.321402
0.338738
0.356362
0.374252
0.392401
0.410782
0.429393
0.448212
0.467227
0.486429
0.505806
0.525348
0.545043
0.564879
0.584847
0.604944
0.625148
0.64546
0.665865
0.686365
0.706944
0.727596
0.748318
0.769111
0.789973
0.81093
0.831993
0.853195
0.874551
0.896034
0.917573
0.939089
0.960559
0.982152
1.00432
1.02779
1.05314
1.08016
1.10774
1.13483
1.16114
1.18738
1.21474
1.24331
1.27257
1.30288
1.33346
1.36234
1.39056
1.42159
1.45632
1.49187
1.526
1.55927
1.59219
1.62508
1.65746
1.69055
1.72702
1.76535
1.80358
1.84045
1.87725
1.91426
1.95156
1.98915
2.027
2.06509
2.10337
2.14183
2.18048
2.21924
2.258
2.29673
2.33536
2.37381
2.41202
2.44986
2.48732
2.52351
2.55941
2.59482
2.62953
2.66339
2.69621
2.72784
2.75813
2.78688
2.81396
2.83916
2.86232
2.88326
2.90181
2.91782
2.93107
2.94148
2.94889
2.95322
2.95444
2.95253
2.94734
2.93888
2.9272
2.91232
2.89428
2.87307
2.84749
2.81437
2.77211
2.73461
2.69883
2.66497
2.63114
2.59558
2.5589
2.52213
2.48529
2.44879
2.41318
2.37846
2.34443
2.31108
2.27855
2.24699
2.2165
2.18715
2.15951
2.13813
2.13956
2.12278
2.06564
2.03665
2.0383
2.01732
1.97234
1.94306
1.94171
1.95068
1.92504
1.90624
1.89098
1.8845
1.87678
1.86373
1.84308
1.82696
1.78563
1.75316
1.73794
1.7257
1.71435
1.70386
1.69807
1.71743
1.72074
1.70932
1.69739
1.68553
1.67339
1.66041
1.64418
0.0179369
0.0762375
0.101217
0.119333
0.135011
0.149677
0.164008
0.178377
0.193005
0.208013
0.223466
0.239381
0.255757
0.272582
0.289836
0.307499
0.325555
0.343978
0.362752
0.381861
0.401288
0.421016
0.441034
0.461323
0.481869
0.502667
0.523701
0.544967
0.56645
0.588139
0.610032
0.632118
0.654387
0.676836
0.699462
0.722251
0.745203
0.768316
0.791593
0.815034
0.838641
0.862428
0.8864
0.910586
0.935002
0.959687
0.984689
1.01004
1.03579
1.06192
1.08844
1.11536
1.14274
1.17077
1.19966
1.22953
1.26028
1.29155
1.32307
1.3548
1.38695
1.41975
1.45324
1.48739
1.52213
1.55725
1.5925
1.6281
1.66458
1.70199
1.73996
1.77816
1.81656
1.85523
1.89418
1.93345
1.97329
2.01392
2.05517
2.09669
2.13834
2.1802
2.2223
2.26467
2.30731
2.35019
2.39332
2.43665
2.48017
2.52385
2.56765
2.61146
2.65526
2.69896
2.7425
2.7858
2.82875
2.8713
2.91239
2.95307
2.99325
3.03274
3.07131
3.10883
3.14508
3.17988
3.21308
3.24447
3.27384
3.301
3.32574
3.34786
3.36717
3.3835
3.39666
3.40653
3.41298
3.41584
3.41526
3.411
3.40309
3.39156
3.37648
3.35798
3.33627
3.31146
3.28328
3.25157
3.21797
3.18304
3.14686
3.10959
3.07141
3.0324
2.99286
2.95298
2.91302
2.8733
2.83404
2.79531
2.75727
2.72005
2.68376
2.64854
2.61447
2.58176
2.55197
2.5281
2.50009
2.46332
2.43418
2.41437
2.3898
2.35917
2.33293
2.31636
2.30279
2.28033
2.25944
2.24068
2.22489
2.21004
2.19291
2.17441
2.15684
2.13194
2.10904
2.092
2.07632
2.0612
2.04659
2.0337
2.02763
2.01714
2.00145
1.98551
1.96973
1.95389
1.93752
1.91896
0.0234088
0.0944334
0.123664
0.144557
0.162403
0.178905
0.194867
0.21074
0.226794
0.243189
0.260014
0.277311
0.295088
0.313342
0.332053
0.351205
0.370774
0.390741
0.411088
0.431797
0.452852
0.47424
0.495944
0.517958
0.540267
0.562863
0.58574
0.608881
0.632287
0.655947
0.679858
0.704014
0.728404
0.753037
0.777898
0.802988
0.828311
0.853868
0.879665
0.905706
0.93201
0.958586
0.985457
1.01265
1.0402
1.06813
1.0965
1.12532
1.15465
1.1845
1.21488
1.2458
1.27728
1.30936
1.34212
1.37559
1.40974
1.44449
1.47977
1.51555
1.55188
1.58876
1.62621
1.66423
1.70279
1.74183
1.78133
1.82132
1.86184
1.90292
1.94449
1.98653
2.02901
2.07191
2.11524
2.159
2.2032
2.24784
2.29291
2.33832
2.38407
2.43011
2.47644
2.52305
2.56993
2.61707
2.66445
2.71204
2.75982
2.80779
2.85586
2.90397
2.95209
3.00013
3.04806
3.09577
3.14314
3.19017
3.23559
3.28055
3.32504
3.36887
3.41184
3.45375
3.49442
3.53365
3.57126
3.60702
3.64071
3.67214
3.70104
3.72723
3.75045
3.77053
3.78724
3.80042
3.80991
3.81559
3.81733
3.81517
3.80898
3.79882
3.78477
3.76697
3.74572
3.72144
3.69441
3.66451
3.63171
3.59632
3.55872
3.51944
3.47906
3.43775
3.3957
3.35315
3.31032
3.26748
3.22487
3.18269
3.14112
3.10032
3.06041
3.02155
2.98377
2.94716
2.91209
2.87904
2.8459
2.81197
2.7806
2.75205
2.7239
2.69569
2.66903
2.64487
2.62179
2.59748
2.57411
2.55197
2.53116
2.51116
2.49115
2.47123
2.45118
2.42915
2.40761
2.38775
2.36836
2.34926
2.33037
2.31187
2.29478
2.27629
2.25623
2.23614
2.21623
2.1964
2.1763
2.15467
0.0284213
0.110435
0.143447
0.166855
0.186664
0.204802
0.222182
0.239316
0.256522
0.273996
0.291861
0.310178
0.328981
0.348277
0.368056
0.388305
0.409007
0.430143
0.451695
0.473646
0.495982
0.518689
0.541757
0.565172
0.588927
0.613012
0.637423
0.662153
0.687193
0.712541
0.738193
0.764146
0.790395
0.816943
0.843786
0.870928
0.89837
0.926116
0.954181
0.982569
1.0113
1.04039
1.06985
1.09973
1.13004
1.16082
1.1921
1.22391
1.25628
1.28922
1.32275
1.35687
1.39159
1.42692
1.46289
1.4995
1.53676
1.57465
1.61315
1.65224
1.69191
1.73218
1.77302
1.81442
1.85638
1.89888
1.94191
1.98547
2.02957
2.07421
2.11935
2.165
2.21114
2.25774
2.30482
2.35234
2.40031
2.4487
2.49748
2.54664
2.59615
2.64599
2.69613
2.74658
2.7973
2.84827
2.8995
2.95094
3.00259
3.05441
3.10637
3.15839
3.21042
3.26243
3.31437
3.36613
3.41761
3.46881
3.5183
3.56732
3.61593
3.66395
3.71118
3.75744
3.80253
3.84626
3.88841
3.92877
3.96712
4.0032
4.03677
4.06758
4.09539
4.11995
4.14102
4.1584
4.17188
4.18131
4.18655
4.18751
4.18416
4.17646
4.1645
4.1484
4.12848
4.10506
4.07852
4.04889
4.01606
3.98024
3.94181
3.9013
3.85927
3.81602
3.77181
3.7269
3.68155
3.63602
3.59056
3.54542
3.50078
3.45683
3.41369
3.37154
3.3304
3.29036
3.2515
3.21391
3.17728
3.14155
3.10728
3.0744
3.04278
3.01228
2.9828
2.95432
2.92657
2.89924
2.87271
2.84703
2.82218
2.79794
2.77408
2.75037
2.72655
2.70231
2.67819
2.65446
2.63087
2.60741
2.58399
2.56051
2.53706
2.51295
2.48835
2.46374
2.43933
2.41505
2.39067
2.3651
0.0328176
0.124144
0.160418
0.186033
0.207581
0.227173
0.245802
0.264033
0.282217
0.300582
0.319274
0.338385
0.357965
0.378036
0.398606
0.41967
0.441216
0.463229
0.485696
0.508602
0.531934
0.55568
0.579828
0.604371
0.6293
0.654608
0.680292
0.70634
0.732757
0.759535
0.786676
0.814174
0.842026
0.870243
0.898818
0.92776
0.957068
0.986749
1.01682
1.04729
1.07817
1.10948
1.14125
1.17348
1.20622
1.23947
1.27328
1.30766
1.34264
1.37823
1.41444
1.45128
1.48876
1.52687
1.56563
1.60505
1.64513
1.68585
1.72723
1.76925
1.81189
1.85517
1.89906
1.94356
1.98866
2.03435
2.08062
2.12747
2.1749
2.22288
2.27141
2.32048
2.37007
2.42015
2.47073
2.52177
2.57326
2.62519
2.67753
2.73025
2.78334
2.83677
2.8905
2.94454
2.99887
3.05344
3.10826
3.1633
3.21854
3.27398
3.32954
3.3852
3.44088
3.49659
3.55225
3.6078
3.66314
3.71826
3.77163
3.82451
3.87706
3.92912
3.98052
4.03106
4.08056
4.12881
4.17562
4.22076
4.264
4.30506
4.3437
4.37963
4.41261
4.4423
4.46848
4.49086
4.50923
4.52335
4.53304
4.53817
4.53865
4.53447
4.52559
4.51219
4.49445
4.47273
4.4473
4.41837
4.38593
4.35021
4.31154
4.27041
4.22734
4.18268
4.13675
4.08987
4.04235
3.99446
3.94646
3.89861
3.85113
3.80419
3.758
3.71264
3.66826
3.6249
3.58263
3.54149
3.50151
3.4627
3.42509
3.38862
3.35337
3.31929
3.28617
3.25389
3.22231
3.19139
3.16112
3.13155
3.10261
3.07412
3.04591
3.01773
2.98951
2.96118
2.93285
2.90457
2.87629
2.848
2.81967
2.79114
2.76235
2.73311
2.70358
2.67404
2.64463
2.61545
2.58624
2.55604
0.0365098
0.135558
0.174559
0.202048
0.225093
0.245947
0.265666
0.28485
0.303875
0.322991
0.342365
0.362108
0.382288
0.402948
0.424104
0.445765
0.467929
0.490587
0.51373
0.537348
0.561431
0.585967
0.61095
0.636374
0.662229
0.68851
0.715219
0.742346
0.769891
0.797853
0.826232
0.855028
0.884238
0.913874
0.943931
0.974416
1.00534
1.0367
1.06851
1.10079
1.13355
1.1668
1.20056
1.23486
1.26971
1.30513
1.34114
1.37777
1.41503
1.45294
1.4915
1.53073
1.57064
1.61122
1.65249
1.69445
1.73711
1.78045
1.82449
1.86922
1.91463
1.96072
2.00748
2.05491
2.10299
2.15171
2.20108
2.25107
2.30168
2.35289
2.40469
2.45707
2.51
2.56345
2.61742
2.67187
2.7268
2.78217
2.83796
2.89414
2.95069
3.00758
3.06478
3.12228
3.18003
3.23805
3.29629
3.35474
3.41338
3.4722
3.53116
3.59021
3.6493
3.70843
3.76756
3.82661
3.88553
3.9443
4.00129
4.05778
4.11402
4.1699
4.22523
4.27985
4.3336
4.38628
4.43768
4.4876
4.53579
4.582
4.62595
4.66735
4.70588
4.74122
4.77309
4.80116
4.82514
4.84476
4.85979
4.87001
4.8753
4.87556
4.87076
4.86098
4.8464
4.82728
4.80391
4.7765
4.74522
4.71028
4.67203
4.63092
4.5874
4.54188
4.49474
4.44634
4.39701
4.34706
4.29678
4.24644
4.19629
4.14653
4.09733
4.04886
4.00124
3.95455
3.90887
3.86425
3.82077
3.77839
3.73712
3.69692
3.65781
3.61976
3.58262
3.5463
3.51065
3.47565
3.44118
3.4073
3.37391
3.34085
3.30794
3.27497
3.24191
3.20876
3.1755
3.14216
3.10873
3.07521
3.04155
3.00764
2.97341
2.9388
2.90394
2.86903
2.83426
2.79973
2.76523
2.72992
0.0394577
0.144744
0.185948
0.214974
0.239259
0.261173
0.281816
0.30181
0.321547
0.341294
0.361228
0.381476
0.402121
0.423219
0.444802
0.466889
0.489485
0.512593
0.53621
0.560329
0.584946
0.610053
0.635645
0.66172
0.688269
0.715292
0.742788
0.770752
0.799188
0.828092
0.857469
0.88732
0.917641
0.948447
0.979736
1.01152
1.04379
1.07657
1.10987
1.1437
1.17807
1.21299
1.24848
1.28456
1.32125
1.35856
1.39651
1.43512
1.4744
1.51438
1.55505
1.59644
1.63855
1.68139
1.72496
1.76928
1.81435
1.86016
1.90672
1.95403
2.00209
2.05088
2.10042
2.15068
2.20166
2.25335
2.30573
2.3588
2.41254
2.46693
2.52196
2.5776
2.63383
2.69062
2.74795
2.80578
2.86411
2.92289
2.98209
3.04168
3.10163
3.16192
3.2225
3.28336
3.34446
3.40578
3.46731
3.529
3.59086
3.65287
3.715
3.77719
3.83942
3.90168
3.96395
4.02617
4.08832
4.15037
4.21061
4.27036
4.32991
4.3892
4.44808
4.50642
4.56405
4.62082
4.67656
4.73103
4.78402
4.83527
4.88452
4.93144
4.97571
5.01699
5.05492
5.08915
5.11933
5.14513
5.1662
5.18233
5.19327
5.19888
5.19908
5.19387
5.18338
5.16781
5.14743
5.12247
5.09316
5.05977
5.02263
4.98215
4.93879
4.89301
4.84517
4.79572
4.74498
4.69331
4.64105
4.58846
4.53583
4.48337
4.43129
4.37977
4.32894
4.27892
4.22979
4.18161
4.13444
4.08829
4.04314
3.99896
3.95576
3.91349
3.87207
3.83139
3.79132
3.75181
3.71279
3.67421
3.636
3.59799
3.56004
3.52196
3.48372
3.4453
3.40669
3.36791
3.32895
3.28982
3.25046
3.21083
3.17087
3.13054
3.08999
3.04939
3.00892
2.9687
2.92858
2.8878
0.0416546
0.151806
0.194722
0.224957
0.250228
0.272994
0.294385
0.315039
0.335357
0.355611
0.37599
0.396628
0.417619
0.439029
0.460903
0.483267
0.50614
0.529529
0.55344
0.577874
0.602829
0.628303
0.654296
0.680808
0.707832
0.735373
0.763431
0.792003
0.821095
0.850707
0.880844
0.911509
0.942702
0.974436
1.00671
1.03954
1.07293
1.10688
1.14142
1.17654
1.21227
1.24861
1.28559
1.32321
1.3615
1.40047
1.44014
1.48051
1.52162
1.56347
1.60608
1.64946
1.69362
1.73857
1.78432
1.83088
1.87825
1.92643
1.97545
2.02527
2.07592
2.12738
2.17964
2.23271
2.28657
2.3412
2.39659
2.45274
2.50961
2.56719
2.62545
2.68437
2.74391
2.80406
2.86477
2.926
2.98774
3.04993
3.11255
3.17554
3.23889
3.30255
3.36647
3.43063
3.49498
3.55951
3.62418
3.68897
3.75386
3.81886
3.88391
3.94897
4.01403
4.07907
4.1441
4.20907
4.27399
4.33884
4.40186
4.46436
4.52669
4.58883
4.65068
4.71214
4.77309
4.83337
4.89287
4.9514
5.00873
5.06465
5.11887
5.1711
5.221
5.2682
5.31232
5.35295
5.38967
5.42209
5.44981
5.47248
5.48981
5.50159
5.50763
5.5079
5.50241
5.49133
5.47486
5.45326
5.42678
5.39571
5.36039
5.32123
5.2787
5.23323
5.18527
5.13523
5.08355
5.03056
4.97666
4.92211
4.86725
4.8123
4.75751
4.70306
4.6491
4.59577
4.54318
4.49139
4.44047
4.39041
4.34128
4.29295
4.24548
4.19882
4.15287
4.10759
4.06281
4.01854
3.97461
3.93103
3.88769
3.84444
3.80115
3.75766
3.71394
3.66994
3.62568
3.58116
3.53637
3.49134
3.44603
3.4004
3.35444
3.30815
3.26166
3.21512
3.16874
3.12262
3.07665
3.03017
0.043127
0.156879
0.20105
0.232184
0.258196
0.281607
0.303568
0.324725
0.345485
0.36612
0.386824
0.407736
0.428958
0.450562
0.4726
0.49511
0.518118
0.541638
0.565684
0.590262
0.615378
0.641033
0.667232
0.69398
0.721273
0.74912
0.777523
0.806484
0.836011
0.866105
0.896776
0.928028
0.959861
0.992295
1.02533
1.05898
1.09324
1.12814
1.16369
1.19988
1.23675
1.2743
1.31255
1.35151
1.39121
1.43165
1.47285
1.51483
1.55762
1.60121
1.64562
1.69088
1.737
1.78397
1.83183
1.88057
1.9302
1.98073
2.03217
2.0845
2.13774
2.19186
2.24688
2.30278
2.35955
2.41716
2.47561
2.53488
2.59493
2.65575
2.71731
2.77957
2.84249
2.90604
2.97018
3.03487
3.10007
3.16571
3.23177
3.29819
3.36493
3.43194
3.49917
3.56658
3.63411
3.70175
3.76944
3.83716
3.90489
3.97264
4.04034
4.10796
4.17548
4.24291
4.31024
4.37747
4.44459
4.51165
4.57685
4.64146
4.70587
4.77012
4.83417
4.89793
4.96135
5.02432
5.08675
5.1485
5.2094
5.26926
5.32782
5.38479
5.43987
5.49268
5.54277
5.58974
5.63309
5.67238
5.70708
5.7368
5.76113
5.77974
5.79238
5.79895
5.79936
5.79366
5.78202
5.76468
5.74189
5.71396
5.68123
5.64413
5.6031
5.5586
5.5111
5.46108
5.40895
5.35511
5.29996
5.24384
5.18706
5.1299
5.07263
5.01543
4.95851
4.902
4.84603
4.79065
4.736
4.68203
4.62883
4.57629
4.52445
4.47327
4.42269
4.37263
4.32298
4.27371
4.22469
4.17589
4.12722
4.07851
4.02967
3.98056
3.93113
3.88134
3.83122
3.78076
3.72995
3.67884
3.62741
3.57563
3.52352
3.47111
3.41853
3.36593
3.31351
3.26138
3.20946
3.15717
0.0439172
0.160114
0.205122
0.236868
0.263389
0.287243
0.309596
0.331097
0.352152
0.373036
0.39394
0.415007
0.436341
0.458021
0.480104
0.502636
0.525646
0.54916
0.573194
0.597761
0.622874
0.648539
0.674766
0.701565
0.728937
0.756894
0.785444
0.814591
0.844345
0.874714
0.90571
0.937338
0.969605
1.00253
1.03612
1.07038
1.10532
1.14096
1.17732
1.2144
1.25223
1.29081
1.33016
1.37031
1.41126
1.45304
1.49566
1.53914
1.5835
1.62875
1.67491
1.722
1.77004
1.81902
1.86897
1.91991
1.97182
2.02472
2.07862
2.13351
2.18939
2.24626
2.3041
2.36291
2.42267
2.48335
2.54495
2.60743
2.67077
2.73493
2.79986
2.86556
2.93194
2.99899
3.06664
3.13484
3.20354
3.27269
3.34223
3.41209
3.48222
3.55257
3.62307
3.69366
3.76429
3.83491
3.90548
3.97594
4.04629
4.11651
4.18655
4.25636
4.32594
4.39528
4.46439
4.53329
4.60197
4.67054
4.7372
4.80314
4.86879
4.93425
4.9995
5.06455
5.12936
5.19391
5.25815
5.322
5.38537
5.44809
5.50997
5.57078
5.63021
5.68791
5.74345
5.79637
5.84614
5.89224
5.93406
5.9711
6.00284
6.02885
6.04875
6.06233
6.06943
6.07003
6.06413
6.05196
6.03374
6.00981
5.98048
5.9462
5.90741
5.8646
5.81825
5.76885
5.71685
5.66269
5.6068
5.54955
5.49126
5.43228
5.37283
5.3132
5.25356
5.19405
5.13487
5.07607
5.01777
4.95997
4.90273
4.84601
4.7898
4.73409
4.67882
4.62393
4.56933
4.51498
4.46076
4.40663
4.3525
4.29823
4.24374
4.18888
4.13364
4.07797
4.02188
3.96538
3.90848
3.85122
3.7936
3.73561
3.67732
3.61875
3.56004
3.50136
3.44288
3.38473
3.32685
3.26877
0.0440503
0.161663
0.20713
0.239229
0.266043
0.290149
0.31272
0.334405
0.355607
0.376599
0.397573
0.41867
0.439997
0.461635
0.483644
0.506075
0.528965
0.552345
0.576237
0.600653
0.625615
0.651137
0.677234
0.70392
0.731203
0.759098
0.787618
0.816773
0.846577
0.877041
0.908181
0.940008
0.972531
1.00577
1.03974
1.07445
1.10991
1.14614
1.18317
1.221
1.25965
1.29915
1.3395
1.38073
1.42286
1.4659
1.50988
1.55482
1.60074
1.64764
1.69556
1.74451
1.79451
1.84555
1.89767
1.95087
2.00516
2.06053
2.11701
2.17457
2.23323
2.29296
2.35376
2.41561
2.4785
2.54239
2.60727
2.67309
2.73983
2.80745
2.87588
2.9451
3.01505
3.08567
3.15689
3.22867
3.30093
3.3736
3.44661
3.51991
3.59341
3.66703
3.74071
3.81438
3.88796
3.9614
4.03463
4.1076
4.18028
4.25265
4.32465
4.39623
4.46738
4.53809
4.60838
4.67826
4.74777
4.81703
4.88431
4.95069
5.01661
5.08221
5.14754
5.21265
5.27758
5.34237
5.40703
5.47158
5.53598
5.60016
5.66401
5.72735
5.78994
5.85147
5.91152
5.96964
6.02528
6.07783
6.1266
6.171
6.21037
6.24416
6.27184
6.29306
6.30758
6.31525
6.31606
6.30995
6.29723
6.27818
6.25313
6.22252
6.18678
6.14643
6.10196
6.05388
6.00268
5.94883
5.89278
5.83493
5.77565
5.71528
5.65411
5.59239
5.53038
5.46822
5.4061
5.3441
5.28236
5.22091
5.15981
5.099
5.03854
4.97839
4.9185
4.85884
4.79931
4.73989
4.68046
4.62101
4.56143
4.50158
4.44143
4.38083
4.31977
4.25821
4.19616
4.13364
4.07067
4.00731
3.94354
3.87941
3.81499
3.75032
3.68556
3.62087
3.55642
3.49233
3.42861
3.36483
0.043689
0.161698
0.207284
0.239491
0.266395
0.290571
0.313192
0.334904
0.356107
0.37707
0.397984
0.41899
0.440193
0.461676
0.483504
0.505727
0.528387
0.551518
0.575144
0.599288
0.623975
0.649227
0.675062
0.701502
0.728559
0.756253
0.784605
0.813628
0.843341
0.873763
0.904912
0.936805
0.969456
1.00289
1.03713
1.07218
1.10807
1.14481
1.18242
1.22093
1.26036
1.30073
1.34206
1.38437
1.42768
1.47201
1.51739
1.56385
1.6114
1.66006
1.70985
1.76078
1.81288
1.86614
1.92059
1.97623
2.03307
2.09111
2.15035
2.21079
2.2724
2.3352
2.39915
2.46423
2.53043
2.5977
2.66601
2.73533
2.80561
2.87679
2.94882
3.02166
3.09523
3.16946
3.24429
3.31963
3.39542
3.47157
3.54799
3.62462
3.70134
3.77809
3.85477
3.93131
4.0076
4.08358
4.15917
4.23429
4.3089
4.38298
4.45647
4.52928
4.60141
4.67286
4.74362
4.81372
4.88321
4.95224
5.01921
5.08503
5.15014
5.21471
5.27886
5.34268
5.40629
5.46979
5.5333
5.59689
5.66065
5.72459
5.78872
5.85295
5.91714
5.98104
6.0443
6.10649
6.16705
6.22536
6.28062
6.33214
6.37911
6.42086
6.45668
6.48609
6.50866
6.52415
6.53242
6.53343
6.52714
6.51392
6.49407
6.46802
6.43624
6.39919
6.35743
6.31146
6.26182
6.20899
6.15346
6.09565
6.03597
5.97478
5.91239
5.84911
5.78516
5.72075
5.65608
5.59123
5.52638
5.46155
5.39683
5.3322
5.26768
5.20327
5.13894
5.07465
5.01033
4.94598
4.88146
4.81679
4.75186
4.68655
4.62084
4.5546
4.48784
4.42049
4.3526
4.2842
4.21529
4.14595
4.07619
4.00607
3.93569
3.86509
3.79445
3.72391
3.65366
3.58384
3.51447
3.44519
0.0427251
0.160376
0.20577
0.237867
0.264673
0.288748
0.311256
0.33284
0.353895
0.374689
0.395408
0.416192
0.437147
0.458355
0.479883
0.501783
0.524101
0.546872
0.570132
0.593908
0.618228
0.643117
0.668599
0.694703
0.721445
0.748854
0.776954
0.805765
0.835313
0.865622
0.896717
0.928622
0.961355
0.994953
1.02943
1.06482
1.10114
1.13841
1.17667
1.21593
1.25623
1.29759
1.34002
1.38356
1.42821
1.47399
1.52096
1.56913
1.61854
1.6692
1.72111
1.77429
1.82877
1.88454
1.94161
2
2.05969
2.12068
2.18299
2.24657
2.31143
2.37755
2.44488
2.51343
2.58313
2.65395
2.72586
2.79879
2.8727
2.94752
3.02319
3.09964
3.17679
3.25457
3.33289
3.41167
3.49082
3.57024
3.64983
3.7295
3.80915
3.88869
3.968
4.04699
4.12555
4.20361
4.28105
4.35779
4.43377
4.50895
4.58327
4.65663
4.72901
4.80039
4.87079
4.94022
5.00873
5.07651
5.14211
5.20627
5.26939
5.33168
5.3933
5.45441
5.51518
5.57578
5.63641
5.69727
5.75852
5.82033
5.88281
5.94602
6.00993
6.07441
6.1392
6.20394
6.26815
6.33116
6.39211
6.4502
6.5045
6.55417
6.59833
6.63631
6.6675
6.6915
6.70802
6.71695
6.71825
6.71185
6.69821
6.67772
6.65084
6.61804
6.57988
6.53691
6.48967
6.43867
6.38443
6.32741
6.26803
6.20669
6.14372
6.07945
6.01413
5.94799
5.88125
5.81401
5.74646
5.67865
5.61069
5.54256
5.4743
5.40594
5.33744
5.2688
5.19993
5.13087
5.06149
4.99182
4.92176
4.8512
4.78014
4.70848
4.63621
4.56331
4.48981
4.41574
4.34112
4.26605
4.19056
4.1147
4.03861
3.96235
3.88608
3.80997
3.73419
3.65891
3.58416
3.50966
0.0412643
0.157684
0.202584
0.23436
0.260891
0.284704
0.306951
0.328266
0.349043
0.369543
0.389953
0.410411
0.431021
0.451867
0.473015
0.494521
0.516432
0.538788
0.561626
0.584981
0.608885
0.63337
0.658465
0.684204
0.710613
0.737726
0.765574
0.794187
0.823598
0.853836
0.884937
0.916931
0.949845
0.983722
1.01859
1.05447
1.09141
1.12943
1.16856
1.20884
1.2503
1.29295
1.33683
1.38197
1.42836
1.47602
1.52502
1.57539
1.62715
1.68029
1.73483
1.79079
1.84816
1.90694
1.96715
2.02877
2.09179
2.1562
2.222
2.28915
2.35762
2.42738
2.49841
2.57066
2.64408
2.71861
2.79421
2.87081
2.94834
3.02675
3.10593
3.18584
3.26636
3.34741
3.4289
3.51074
3.59282
3.67504
3.75728
3.83945
3.92143
4.00311
4.08436
4.1651
4.24519
4.32454
4.40304
4.48057
4.55707
4.63246
4.70668
4.77964
4.85129
4.92159
4.99056
5.05821
5.12459
5.18991
5.25293
5.31418
5.37403
5.43269
5.49036
5.54725
5.60358
5.6596
5.71558
5.77181
5.82861
5.88626
5.94501
6.00509
6.06664
6.12965
6.19397
6.25946
6.32572
6.39211
6.4577
6.52157
6.5827
6.64009
6.69265
6.73951
6.77985
6.81308
6.8387
6.85644
6.86619
6.86797
6.86166
6.84782
6.8269
6.79941
6.76589
6.7269
6.68301
6.63476
6.58268
6.52727
6.46899
6.40825
6.3454
6.28082
6.21476
6.14749
6.07924
6.01014
5.94039
5.87005
5.79929
5.72806
5.65645
5.58448
5.51216
5.43949
5.36638
5.29292
5.21897
5.14457
5.06966
4.99412
4.91799
4.84118
4.7637
4.68552
4.60669
4.52726
4.44725
4.36677
4.28586
4.2046
4.12313
4.04154
3.95998
3.87862
3.79766
3.71725
3.63747
3.55811
0.0395185
0.153738
0.197845
0.229093
0.25518
0.278582
0.300433
0.321357
0.341743
0.36185
0.381862
0.401916
0.422117
0.442549
0.463278
0.484363
0.505854
0.527794
0.550227
0.573192
0.596728
0.620872
0.645664
0.671145
0.697348
0.724318
0.752097
0.780721
0.810235
0.840678
0.872094
0.904525
0.938005
0.972587
1.00831
1.0452
1.08331
1.12267
1.16333
1.20529
1.2486
1.29326
1.33931
1.38682
1.4358
1.48628
1.53826
1.59174
1.64674
1.70327
1.76133
1.8209
1.882
1.94459
2.00867
2.07422
2.14121
2.20961
2.27941
2.35053
2.42296
2.49664
2.57153
2.64757
2.72469
2.80283
2.88194
2.96192
3.04272
3.12425
3.20641
3.28914
3.37232
3.45587
3.53969
3.62368
3.70772
3.79171
3.87553
3.95906
4.0422
4.12482
4.2068
4.28801
4.36832
4.44766
4.52589
4.60289
4.67857
4.75282
4.82559
4.8968
4.96635
5.03421
5.10037
5.16484
5.22767
5.28911
5.34811
5.40503
5.46019
5.51379
5.56605
5.61721
5.66755
5.71736
5.76701
5.81679
5.86713
5.91849
5.9713
6.02608
6.08306
6.14243
6.20419
6.26847
6.33495
6.40311
6.47207
6.54073
6.60801
6.67279