/*--------------------------------*- C++ -*----------------------------------*\
  =========                 |
  \\      /  F ield         | OpenFOAM: The Open Source CFD Toolbox
   \\    /   O peration     | Website:  https://openfoam.org
    \\  /    A nd           | Version:  7
     \\/     M anipulation  |
\*---------------------------------------------------------------------------*/
FoamFile
{
    version     2.0;
    format      ascii;
    class       volScalarField;
    location    "400";
    object      nut;
}
// * * * * * * * * * * * * * * * * * * * * * * * * * * * * * * * * * * * * * //

dimensions      [0 2 -1 0 0 0 0];

internalField   nonuniform List<scalar> 
48900
(
0.000143046
8.81826e-06
7.61639e-06
7.66637e-06
9.04014e-06
1.11074e-05
1.28679e-05
1.40543e-05
1.477e-05
1.51957e-05
1.54669e-05
1.56591e-05
1.58097e-05
1.59373e-05
1.60484e-05
1.61441e-05
1.62338e-05
1.63391e-05
0.000681262
0.000121995
8.83064e-05
6.77971e-05
5.89196e-05
5.56291e-05
5.49951e-05
5.55642e-05
5.66885e-05
5.80983e-05
5.96703e-05
6.13148e-05
6.29889e-05
6.46592e-05
6.6299e-05
6.78884e-05
6.94223e-05
7.09189e-05
0.000867783
0.00038611
0.00025767
0.000195576
0.00015547
0.000126018
0.000104831
8.99982e-05
7.98743e-05
7.30846e-05
6.86512e-05
6.58904e-05
6.43347e-05
6.36591e-05
6.36311e-05
6.40761e-05
6.48568e-05
6.58869e-05
0.00086056
0.000702102
0.000532836
0.000427809
0.000358016
0.00030638
0.000265946
0.000233452
0.000207159
0.000185784
0.000168375
0.000154119
0.000142383
0.000132702
0.000124606
0.000117873
0.0001123
0.000107828
0.000853382
0.000826182
0.000740087
0.000651285
0.000577879
0.000518228
0.000469174
0.000428046
0.000393119
0.000363234
0.000337535
0.000315339
0.000296085
0.000279311
0.000264649
0.000251805
0.000240563
0.00023087
0.000852141
0.000848523
0.000827059
0.000784065
0.000735751
0.000688997
0.000646206
0.000607743
0.000573345
0.000542622
0.000515179
0.000490654
0.00046872
0.000449089
0.000431506
0.000415772
0.000401741
0.000389375
0.000851902
0.000851699
0.000847587
0.00083597
0.000815177
0.00078983
0.000762766
0.000735716
0.000709589
0.000684836
0.000661651
0.000640094
0.000620148
0.000601758
0.000584858
0.000569382
0.000555295
0.00054264
0.000851894
0.000851669
0.000851186
0.000848802
0.000842979
0.000833717
0.000821272
0.000807048
0.000791777
0.000776122
0.000760498
0.000745198
0.000730416
0.000716274
0.000702851
0.000690201
0.000678381
0.000667507
0.000851893
0.000851573
0.000851341
0.000850934
0.000849773
0.000847295
0.000843216
0.000837694
0.000830905
0.000823238
0.000814917
0.000806206
0.000797334
0.000788434
0.000779639
0.000771045
0.000762747
0.000754861
0.000851891
0.000851539
0.000851242
0.000850996
0.000850696
0.000850134
0.000849103
0.000847474
0.000845183
0.000842283
0.00083883
0.000834906
0.000830645
0.000826116
0.000821414
0.000816616
0.000811786
0.000806943
0.000851888
0.000851516
0.000851184
0.000850896
0.000850642
0.000850385
0.000850064
0.000849607
0.000848951
0.000848056
0.000846904
0.000845497
0.000843852
0.000841996
0.00083996
0.00083778
0.000835494
0.000833164
0.000851886
0.000851499
0.000851148
0.000850832
0.000850549
0.000850291
0.000850047
0.000849799
0.000849522
0.000849191
0.000848788
0.000848296
0.000847708
0.00084702
0.000846237
0.000845364
0.000844413
0.000843404
0.000851885
0.000851488
0.000851124
0.000850792
0.000850489
0.000850211
0.000849954
0.000849715
0.000849487
0.000849261
0.000849029
0.000848781
0.00084851
0.000848211
0.000847878
0.000847509
0.000847105
0.000846669
0.000851883
0.000851479
0.000851104
0.000850759
0.000850441
0.000850146
0.000849873
0.000849617
0.000849379
0.000849155
0.000848943
0.000848739
0.000848542
0.000848348
0.000848153
0.000847955
0.000847753
0.000847543
0.000851882
0.000851472
0.000851088
0.000850733
0.000850403
0.000850096
0.000849809
0.00084954
0.000849287
0.000849048
0.000848824
0.000848612
0.000848411
0.00084822
0.000848038
0.000847863
0.000847694
0.00084753
0.000851881
0.000851466
0.000851077
0.000850713
0.000850374
0.000850057
0.00084976
0.00084948
0.000849216
0.000848967
0.00084873
0.000848505
0.000848292
0.000848089
0.000847895
0.000847711
0.000847534
0.000847364
0.000851881
0.000851463
0.000851069
0.0008507
0.000850354
0.00085003
0.000849725
0.000849437
0.000849165
0.000848906
0.000848661
0.000848427
0.000848204
0.000847991
0.000847787
0.000847592
0.000847405
0.000847226
0.000851881
0.000851461
0.000851064
0.000850691
0.000850341
0.000850012
0.000849702
0.000849408
0.00084913
0.000848865
0.000848613
0.000848373
0.000848143
0.000847923
0.000847712
0.00084751
0.000847317
0.000847131
0.000851881
0.00085146
0.000851063
0.000850689
0.000850337
0.000850006
0.000849693
0.000849396
0.000849114
0.000848846
0.00084859
0.000848345
0.000848111
0.000847886
0.000847671
0.000847465
0.000847268
0.000847078
0.000851881
0.000851462
0.000851066
0.000850694
0.000850344
0.000850014
0.000849702
0.000849405
0.000849124
0.000848855
0.000848598
0.000848352
0.000848117
0.000847892
0.000847676
0.000847469
0.000847271
0.00084708
0.000851882
0.000851465
0.000851073
0.000850705
0.000850359
0.000850033
0.000849725
0.000849432
0.000849153
0.000848887
0.000848633
0.00084839
0.000848158
0.000847935
0.000847721
0.000847515
0.000847317
0.000847127
0.000851883
0.000851471
0.000851085
0.000850724
0.000850386
0.000850068
0.000849767
0.000849482
0.00084921
0.00084895
0.000848699
0.000848455
0.000848216
0.000847979
0.000847743
0.000847505
0.000847263
0.000847017
0.000851886
0.00085148
0.000851104
0.000850755
0.000850431
0.000850128
0.000849836
0.000849546
0.000849243
0.000848911
0.000848536
0.000848108
0.000847619
0.000847063
0.000846441
0.000845752
0.000845
0.000844186
0.000851892
0.000851496
0.000851137
0.000850813
0.000850492
0.000850102
0.000849545
0.000848737
0.000847617
0.000846162
0.000844375
0.000842276
0.0008399
0.000837287
0.000834476
0.000831503
0.000828407
0.00082521
0.000851921
0.000851535
0.000851204
0.000850636
0.000849322
0.000846679
0.000842714
0.000837419
0.000830966
0.000823809
0.000816012
0.000807841
0.000799456
0.000790985
0.000782524
0.000774143
0.000765894
0.000757795
0.000852163
0.000851742
0.000849738
0.000842994
0.000831106
0.000814644
0.000795987
0.000776336
0.000756553
0.000737129
0.000718329
0.000700288
0.000683074
0.000666711
0.000651201
0.000636527
0.000622653
0.000609526
0.000854662
0.000847087
0.000821429
0.000777184
0.000730038
0.000685709
0.000645644
0.000609699
0.000577342
0.000548049
0.000521417
0.000497145
0.000474997
0.000454776
0.000436307
0.000419424
0.000403971
0.000389794
0.000865916
0.000775121
0.000646671
0.000551614
0.000483951
0.000431705
0.000389177
0.000353218
0.000322169
0.000295209
0.000271803
0.000251527
0.000233994
0.00021884
0.000205728
0.000194377
0.000184504
0.000175909
0.000583437
0.000421703
0.000302146
0.000244279
0.00020512
0.000174682
0.000150596
0.000132041
0.000117991
0.00010757
9.99424e-05
9.44058e-05
9.04193e-05
8.75835e-05
8.56084e-05
8.42836e-05
8.34552e-05
8.30096e-05
1.80953e-05
0.00010992
8.46182e-05
7.46076e-05
7.40766e-05
7.56144e-05
7.68401e-05
7.73021e-05
7.72074e-05
7.68639e-05
7.6492e-05
7.6208e-05
7.60555e-05
7.60378e-05
7.61394e-05
7.63388e-05
7.66136e-05
7.69432e-05
1.63559e-07
1.99895e-06
3.96661e-06
5.60553e-06
7.02086e-06
8.37773e-06
9.76777e-06
1.12321e-05
1.28221e-05
1.45671e-05
1.64788e-05
1.85792e-05
2.08562e-05
2.33259e-05
2.59845e-05
2.88244e-05
3.18544e-05
3.50548e-05
3.84334e-05
4.1963e-05
4.56425e-05
4.94693e-05
5.34125e-05
5.74725e-05
6.1651e-05
6.59121e-05
7.02611e-05
7.46887e-05
7.91878e-05
8.37508e-05
8.83716e-05
9.30427e-05
9.77564e-05
0.000102506
0.000107264
0.000112068
0.000116889
0.000121702
0.000126547
0.000131373
0.000136219
0.000141021
0.000145797
0.000150567
0.000155245
0.000159811
0.000164208
0.000168201
0.000171735
0.000174478
0.000176381
0.000177202
0.000177167
0.000177497
0.000178008
0.000181486
0.000194346
0.000196344
0.000202725
0.000208826
0.000203131
4.34746e-05
0.000215555
0.000205456
0.000197862
0.000187184
0.00019243
4.05599e-05
3.90148e-05
4.10668e-05
0.000216278
0.000213658
0.000220191
0.000201821
4.29929e-05
4.53538e-05
4.58276e-05
4.92938e-05
4.87961e-05
0.000227677
4.72953e-05
4.79644e-05
4.84488e-05
4.88983e-05
4.93417e-05
4.9775e-05
5.02108e-05
5.06394e-05
5.10547e-05
5.14741e-05
5.18923e-05
5.22884e-05
5.26697e-05
5.30503e-05
5.34116e-05
5.37616e-05
5.40931e-05
5.44188e-05
5.47293e-05
5.50276e-05
5.53052e-05
5.55758e-05
5.58251e-05
5.60636e-05
5.62737e-05
5.64656e-05
5.66348e-05
5.67825e-05
5.69048e-05
5.7003e-05
5.7067e-05
5.7117e-05
5.71225e-05
5.71083e-05
5.70371e-05
5.69572e-05
5.68197e-05
5.66593e-05
5.64539e-05
5.62066e-05
5.59145e-05
5.55818e-05
5.52417e-05
5.51034e-05
5.56985e-05
5.97957e-05
6.98482e-05
6.02034e-05
7.1472e-05
5.97621e-05
5.85188e-05
5.75041e-05
5.61416e-05
5.56708e-05
5.46743e-05
5.37221e-05
5.31211e-05
5.26773e-05
5.2239e-05
5.18098e-05
5.13975e-05
5.10479e-05
5.09096e-05
5.08322e-05
5.07461e-05
5.04429e-05
4.93554e-05
0.000636136
0.000518311
2.72585e-05
3.6355e-05
1.12006e-05
1.02858e-05
2.3482e-05
4.08717e-05
3.01306e-05
0.000149457
9.06748e-06
9.23521e-06
9.13143e-06
0.000140103
0.000128135
0.000160304
0.000408041
0.000436674
3.14799e-05
2.6368e-05
2.62963e-05
2.61136e-05
2.59861e-05
2.58747e-05
2.55735e-05
0.00032925
0.000397977
0.00039107
0.000389483
0.000385199
0.00038048
0.000375346
0.000366529
5.29767e-07
4.8106e-05
9.92298e-05
0.000133878
0.000157344
0.000173678
0.00018579
0.000195651
0.000204423
0.000212749
0.000220998
0.000229383
0.000237983
0.000246874
0.000256074
0.000265574
0.000275384
0.000285503
0.000295915
0.00030661
0.000317547
0.000328723
0.000340101
0.000351655
0.000363362
0.000375192
0.000387138
0.000399179
0.000411275
0.000423427
0.000435614
0.00044782
0.000460036
0.000472265
0.000484472
0.000496654
0.000508803
0.000520921
0.00053299
0.000545019
0.000556982
0.000568912
0.000580762
0.000592547
0.000604191
0.000615658
0.000626824
0.000637496
0.000647413
0.000656177
0.000663368
0.000668736
0.000672606
0.000675786
0.00068084
0.000689203
0.000700423
0.000708054
0.000713786
0.000712756
0.000685201
0.000676451
0.000744177
0.000723325
0.000693122
0.000677179
0.000636253
0.000583538
0.000586533
0.000676291
0.000799762
0.000801668
0.000766425
0.000720572
0.000710337
0.000700866
0.000677622
0.000711879
0.000767909
0.000822998
0.000809112
0.000818057
0.000828439
0.000839335
0.000850364
0.000861577
0.000872949
0.000884466
0.000896133
0.000907887
0.00091992
0.000931907
0.000943803
0.000955577
0.000967399
0.000979269
0.000991109
0.00100293
0.00101446
0.00102593
0.0010375
0.00104903
0.00106041
0.00107165
0.00108275
0.00109359
0.00110407
0.00111432
0.00112409
0.0011335
0.00114236
0.00115064
0.00115838
0.0011655
0.00117188
0.0011773
0.0011818
0.00118572
0.00118877
0.00119083
0.00119195
0.00119236
0.00119242
0.00119313
0.00119454
0.00117875
0.0010616
0.000784941
0.000761481
0.000671807
0.000655973
0.000650715
0.000624693
0.000597175
0.000577706
0.000557373
0.000541623
0.000534483
0.000530804
0.000527612
0.000524474
0.00052171
0.000519247
0.000517073
0.000515126
0.00051511
0.000539765
0.00098903
0.00118971
0.000538547
0.000514215
0.00078709
0.000787278
0.000471549
0.000444675
0.000539574
0.000947904
0.000786525
0.000765201
0.000759937
0.000931926
0.000985954
0.0010287
0.00112891
0.00109916
0.000483536
0.000351945
0.00034126
0.000339238
0.000338109
0.000337424
0.000350181
0.000764479
0.00108196
0.00108884
0.00108245
0.00107442
0.00106605
0.00105589
0.00103803
9.58271e-07
7.57218e-05
0.000159635
0.000222951
0.000269777
0.000304693
0.00033141
0.0003528
0.000370941
0.000387291
0.000402814
0.000418082
0.00043345
0.000449101
0.000465102
0.000481484
0.000498307
0.000515516
0.000533154
0.000551254
0.000569776
0.000588606
0.000607688
0.00062701
0.0006465
0.000666147
0.000685903
0.000705743
0.00072565
0.000745593
0.00076555
0.000785495
0.000805412
0.000825277
0.000845088
0.000864791
0.0008844
0.000903875
0.000923212
0.000942387
0.000961379
0.000980172
0.000998748
0.00101706
0.00103509
0.00105276
0.00107001
0.00108671
0.00110256
0.0011171
0.00112969
0.00113975
0.00114719
0.00115304
0.00115971
0.00117031
0.00118668
0.00120766
0.00122918
0.0012465
0.00125982
0.0012766
0.00129189
0.00129876
0.00130761
0.00132084
0.00132855
0.00133441
0.0013548
0.00139455
0.00142921
0.00144625
0.00145639
0.00146842
0.00148733
0.00150349
0.00151671
0.00154331
0.00157424
0.00159859
0.00161696
0.00163809
0.00165969
0.00168159
0.00170374
0.00172609
0.00174867
0.00177145
0.0017944
0.00181757
0.00184092
0.00186434
0.00188783
0.00191136
0.00193496
0.00195861
0.00198221
0.00200568
0.00202872
0.00205163
0.0020745
0.00209723
0.00211978
0.002142
0.00216382
0.0021852
0.00220593
0.00222602
0.0022453
0.00226371
0.00228113
0.00229745
0.00231261
0.00232642
0.00233887
0.00234954
0.00235851
0.0023659
0.00237166
0.00237551
0.00237736
0.00237728
0.00237524
0.00237134
0.00236468
0.00234372
0.00226609
0.00212035
0.00205752
0.00198155
0.00195115
0.00193176
0.00189531
0.00185239
0.00181639
0.00178296
0.00175204
0.00173101
0.00171503
0.00170012
0.00168534
0.00167104
0.00165719
0.00164383
0.00163103
0.00162241
0.00165349
0.0018782
0.00193622
0.00165134
0.00159826
0.0017336
0.0017186
0.00153397
0.00146098
0.00155225
0.00170101
0.00166171
0.00164568
0.00163494
0.00165921
0.00165207
0.00167608
0.00174531
0.00172974
0.00143107
0.00125626
0.00122706
0.00121784
0.00121065
0.0012054
0.00122976
0.00150533
0.00165249
0.0016445
0.0016326
0.00162008
0.00160694
0.00159164
0.00156761
1.4031e-06
9.63695e-05
0.00020459
0.000289423
0.000354662
0.000405053
0.000444742
0.000477035
0.000504476
0.000528928
0.000551723
0.000573742
0.000595557
0.000617523
0.000639833
0.0006626
0.00068588
0.000709663
0.000733925
0.000758618
0.000783697
0.000809138
0.000834907
0.000860908
0.000887065
0.000913367
0.000939766
0.000966274
0.000992847
0.00101947
0.00104609
0.00107265
0.00109914
0.00112552
0.0011518
0.0011779
0.00120382
0.00122953
0.00125499
0.00128018
0.00130504
0.00132957
0.00135372
0.00137747
0.00140078
0.00142365
0.0014461
0.00146811
0.00148963
0.00151045
0.00153023
0.00154856
0.00156526
0.00158089
0.00159679
0.00161488
0.00163671
0.00166216
0.00168946
0.00171631
0.0017417
0.00176602
0.00178913
0.00181204
0.00183705
0.00186449
0.00189153
0.00191656
0.00194176
0.00196911
0.00199729
0.00202505
0.00205298
0.00208204
0.00211209
0.00214088
0.00216811
0.00219613
0.00222514
0.00225409
0.00228329
0.00231313
0.00234331
0.00237372
0.00240437
0.00243523
0.00246635
0.00249768
0.00252923
0.00256096
0.0025929
0.00262495
0.00265713
0.0026894
0.00272176
0.00275416
0.00278651
0.00281869
0.00285041
0.00288183
0.00291309
0.00294421
0.00297501
0.00300543
0.0030353
0.00306453
0.00309303
0.00312065
0.00314723
0.00317264
0.00319675
0.00321939
0.00324043
0.00325973
0.0032771
0.00329244
0.00330535
0.00331595
0.00332446
0.00333037
0.00333359
0.00333398
0.00333124
0.00332489
0.00331406
0.00329565
0.00326083
0.00321047
0.00317027
0.00312896
0.00309913
0.00307343
0.00304318
0.00300925
0.00297639
0.00294437
0.00291293
0.00288465
0.00285821
0.00283225
0.00280646
0.00278097
0.00275578
0.00273111
0.00270709
0.00268492
0.00267486
0.00270212
0.00268934
0.00260831
0.00257081
0.00256832
0.00254174
0.00249253
0.00246148
0.0024609
0.00245669
0.00242923
0.00241269
0.00239457
0.0023764
0.00234902
0.0023444
0.00236327
0.00235214
0.00227364
0.00220585
0.00218077
0.00216385
0.00214824
0.00213398
0.00213264
0.00219228
0.00220902
0.00218762
0.0021694
0.00215148
0.00213288
0.00211204
0.00208302
1.83131e-06
0.000112734
0.000240719
0.000343524
0.000424558
0.000488572
0.000539964
0.000582334
0.000618509
0.000650633
0.000680291
0.000708601
0.000736319
0.000763948
0.000791787
0.000820025
0.000848733
0.000877946
0.000907651
0.00093782
0.000968403
0.000999359
0.00103062
0.00106214
0.00109387
0.00112575
0.00115775
0.0011898
0.00122188
0.00125394
0.00128595
0.00131788
0.00134969
0.00138137
0.00141286
0.00144414
0.00147518
0.00150595
0.0015364
0.0015665
0.00159624
0.00162556
0.00165446
0.00168292
0.00171095
0.00173857
0.00176584
0.0017928
0.00181956
0.00184612
0.00187246
0.00189846
0.00192403
0.00194925
0.00197467
0.00200098
0.00202884
0.00205841
0.0020892
0.00212042
0.0021516
0.00218263
0.00221369
0.00224514
0.00227742
0.00231057
0.00234397
0.00237689
0.00240934
0.00244198
0.00247521
0.00250907
0.00254343
0.00257815
0.00261305
0.00264777
0.00268213
0.00271649
0.00275122
0.00278636
0.00282193
0.00285784
0.00289399
0.00293035
0.00296696
0.00300377
0.0030408
0.00307806
0.00311551
0.00315317
0.00319101
0.00322903
0.0032672
0.00330547
0.00334386
0.00338227
0.00342061
0.00345882
0.00349655
0.00353391
0.00357107
0.00360806
0.00364473
0.00368096
0.00371667
0.00375167
0.00378587
0.0038191
0.00385119
0.00388201
0.00391135
0.00393908
0.00396495
0.00398889
0.00401059
0.00402997
0.00404683
0.00406095
0.00407228
0.00408081
0.00408621
0.0040883
0.00408672
0.0040809
0.00407
0.00405312
0.00402947
0.00400048
0.00397046
0.00393993
0.00391132
0.00388335
0.00385384
0.0038226
0.00379058
0.00375813
0.00372542
0.00369303
0.00366086
0.00362875
0.00359666
0.00356471
0.00353296
0.00350165
0.00347095
0.00344102
0.00341223
0.00338597
0.00335558
0.00332059
0.00328883
0.00325619
0.00322528
0.00320009
0.00317629
0.00314707
0.00311273
0.00308453
0.00306211
0.00303754
0.0030089
0.00297667
0.00295396
0.00294011
0.00292058
0.00289499
0.00286892
0.00284527
0.00282234
0.00280025
0.00277907
0.00275971
0.00274501
0.00272094
0.00269391
0.00266985
0.00264638
0.00262227
0.00259608
0.0025635
2.22355e-06
0.000125824
0.000270069
0.000388285
0.000483178
0.000559452
0.000621585
0.000673334
0.000717712
0.000757059
0.000793156
0.000827282
0.000860366
0.000893032
0.000925685
0.000958579
0.000991857
0.00102558
0.00105977
0.00109441
0.00112945
0.00116486
0.00120058
0.00123655
0.00127272
0.00130903
0.00134544
0.00138189
0.00141834
0.00145474
0.00149106
0.00152727
0.00156332
0.0015992
0.00163485
0.00167025
0.00170537
0.00174019
0.00177466
0.00180878
0.00184251
0.00187585
0.00190879
0.00194133
0.00197351
0.00200537
0.00203698
0.00206843
0.00209982
0.00213125
0.0021628
0.00219446
0.00222623
0.0022581
0.00229021
0.00232274
0.0023559
0.00238981
0.00242439
0.00245944
0.00249483
0.00253049
0.00256647
0.00260281
0.00263956
0.00267669
0.00271404
0.00275142
0.00278878
0.00282622
0.00286389
0.00290183
0.00294005
0.00297842
0.00301693
0.00305551
0.0030942
0.00313306
0.00317214
0.00321149
0.0032511
0.00329094
0.00333097
0.00337122
0.00341164
0.00345225
0.00349307
0.00353408
0.0035753
0.00361669
0.00365829
0.00370004
0.00374195
0.003784
0.00382617
0.00386839
0.00391057
0.00395265
0.00399432
0.00403562
0.00407673
0.00411768
0.00415837
0.00419869
0.00423853
0.00427774
0.0043162
0.00435373
0.0043902
0.0044254
0.00445914
0.00449126
0.00452153
0.00454976
0.00457573
0.00459925
0.00462011
0.00463819
0.0046532
0.00466509
0.0046737
0.00467877
0.00467999
0.00467692
0.00466896
0.00465555
0.00463678
0.00461371
0.00458796
0.00456088
0.0045333
0.00450496
0.00447515
0.00444377
0.0044111
0.00437737
0.00434288
0.00430788
0.0042725
0.00423687
0.00420105
0.00416516
0.00412932
0.00409377
0.00405867
0.00402421
0.00398996
0.0039552
0.00392053
0.00388685
0.00385274
0.00381715
0.00378335
0.0037527
0.00372234
0.00368922
0.00365482
0.00362418
0.00359561
0.00356593
0.00353404
0.00350063
0.00346978
0.00344137
0.00341327
0.0033872
0.00336063
0.00333229
0.00330404
0.00327656
0.00324987
0.00322352
0.00319548
0.0031647
0.00313453
0.0031056
0.00307702
0.00304788
0.00301698
0.00298113
2.5676e-06
0.000136168
0.000293671
0.000425094
0.000532109
0.000619407
0.000691372
0.000751828
0.00080389
0.000850029
0.000892142
0.00093166
0.000969632
0.00100679
0.00104364
0.00108052
0.00111764
0.00115508
0.00119292
0.00123115
0.00126975
0.0013087
0.00134792
0.00138739
0.00142703
0.0014668
0.00150665
0.00154651
0.00158636
0.00162614
0.00166581
0.00170534
0.00174468
0.00178382
0.00182271
0.00186133
0.00189966
0.00193765
0.00197532
0.00201264
0.00204959
0.00208619
0.00212244
0.00215837
0.00219401
0.00222941
0.00226466
0.00229982
0.002335
0.00237029
0.00240576
0.00244143
0.00247735
0.00251349
0.00254989
0.00258658
0.00262362
0.00266105
0.00269887
0.00273705
0.00277554
0.00281433
0.00285341
0.00289277
0.0029324
0.00297227
0.00301231
0.00305248
0.00309272
0.00313305
0.00317349
0.00321409
0.00325482
0.00329568
0.00333667
0.00337777
0.00341902
0.00346044
0.00350203
0.00354379
0.00358573
0.00362785
0.0036701
0.00371253
0.00375511
0.00379784
0.00384075
0.00388384
0.0039271
0.00397056
0.0040142
0.00405803
0.004102
0.00414614
0.00419043
0.00423482
0.00427925
0.00432362
0.00436773
0.00441151
0.00445519
0.00449879
0.00454228
0.00458554
0.00462846
0.00467092
0.00471279
0.00475393
0.00479416
0.00483329
0.00487113
0.00490749
0.00494215
0.00497485
0.00500539
0.00503352
0.00505904
0.00508173
0.00510137
0.00511774
0.0051307
0.00514005
0.00514549
0.00514673
0.00514336
0.0051351
0.00512193
0.00510448
0.00508367
0.00506044
0.00503537
0.00500853
0.0049798
0.0049492
0.00491688
0.00488309
0.00484809
0.00481208
0.00477527
0.00473783
0.00469993
0.00466168
0.00462331
0.00458491
0.00454677
0.00450902
0.00447155
0.00443398
0.00439629
0.00435869
0.00432104
0.00428349
0.0042466
0.00421053
0.00417496
0.00413947
0.00410418
0.00407
0.00403635
0.00400235
0.00396751
0.00393205
0.00389709
0.00386274
0.0038291
0.00379655
0.00376376
0.00373039
0.0036973
0.00366481
0.00363296
0.00360153
0.0035694
0.00353604
0.00350244
0.00346907
0.00343577
0.00340211
0.00336707
0.00332827
2.85658e-06
0.000144155
0.000312248
0.000454739
0.000572284
0.000669388
0.000750257
0.000818704
0.000877888
0.00093034
0.000978046
0.00102254
0.00106495
0.00110613
0.00114666
0.00118695
0.00122725
0.00126775
0.0013085
0.00134957
0.00139095
0.0014326
0.00147451
0.00151662
0.00155889
0.00160125
0.00164367
0.00168609
0.00172846
0.00177075
0.0018129
0.00185489
0.00189667
0.00193823
0.00197953
0.00202054
0.00206126
0.00210165
0.00214172
0.00218145
0.00222086
0.00225994
0.00229873
0.00233725
0.00237553
0.00241364
0.00245163
0.00248958
0.00252755
0.00256562
0.00260384
0.00264225
0.00268088
0.00271972
0.00275877
0.00279805
0.00283757
0.00287732
0.00291733
0.00295759
0.00299807
0.00303876
0.00307967
0.00312077
0.00316207
0.00320351
0.0032451
0.0032868
0.00332857
0.00337043
0.00341237
0.0034544
0.00349652
0.00353874
0.00358104
0.00362345
0.00366598
0.0037086
0.00375137
0.00379423
0.00383723
0.00388033
0.00392355
0.00396689
0.00401035
0.00405394
0.00409769
0.00414158
0.00418565
0.0042299
0.00427434
0.00431898
0.0043638
0.00440883
0.00445405
0.00449945
0.004545
0.00459056
0.00463605
0.00468131
0.00472661
0.00477201
0.00481748
0.00486293
0.00490829
0.00495346
0.0049983
0.00504269
0.00508646
0.00512943
0.00517141
0.00521219
0.00525151
0.00528914
0.00532482
0.00535829
0.00538927
0.00541753
0.00544281
0.00546485
0.00548342
0.00549836
0.00550937
0.00551622
0.00551863
0.00551644
0.0055096
0.00549839
0.00548337
0.00546506
0.00544393
0.00542021
0.00539403
0.00536551
0.00533488
0.00530234
0.00526812
0.00523246
0.00519557
0.00515768
0.00511898
0.00507965
0.00503985
0.00499979
0.00495965
0.00491956
0.00487957
0.00483948
0.00479917
0.00475862
0.00471813
0.00467797
0.00463817
0.00459869
0.00455962
0.00452102
0.00448275
0.00444486
0.00440707
0.00436918
0.00433096
0.00429249
0.00425414
0.004216
0.00417817
0.0041406
0.00410288
0.00406503
0.00402742
0.00399022
0.00395343
0.00391697
0.00388039
0.00384321
0.00380558
0.00376788
0.00373021
0.00369233
0.00365346
0.00361189
3.08735e-06
0.00015009
0.000326377
0.000477918
0.000604435
0.000710089
0.000798881
0.000874543
0.000940215
0.000998454
0.00105129
0.00110032
0.00114675
0.00119149
0.00123521
0.00127839
0.00132133
0.00136426
0.00140731
0.00145054
0.00149398
0.00153762
0.00158145
0.00162544
0.00166955
0.00171372
0.00175791
0.00180207
0.00184616
0.00189014
0.00193397
0.00197762
0.00202103
0.00206421
0.00210711
0.00214973
0.00219204
0.00223403
0.00227571
0.00231706
0.00235812
0.00239887
0.00243935
0.0024796
0.00251964
0.00255953
0.00259931
0.00263904
0.00267878
0.00271857
0.00275846
0.00279848
0.00283865
0.00287898
0.00291946
0.0029601
0.0030009
0.00304186
0.00308298
0.00312425
0.00316568
0.00320724
0.00324895
0.00329079
0.00333275
0.00337482
0.00341699
0.00345924
0.00350156
0.00354394
0.00358638
0.00362888
0.00367143
0.00371406
0.00375674
0.00379948
0.0038423
0.00388519
0.00392815
0.00397117
0.00401428
0.00405745
0.0041007
0.00414404
0.00418746
0.00423101
0.00427468
0.00431848
0.00436245
0.00440661
0.00445097
0.00449555
0.00454036
0.00458542
0.00463076
0.00467636
0.00472222
0.00476821
0.0048143
0.00486035
0.00490661
0.00495319
0.00500009
0.00504726
0.00509465
0.00514217
0.00518975
0.00523724
0.0052845
0.00533137
0.00537766
0.00542313
0.00546756
0.00551065
0.00555214
0.00559171
0.00562908
0.00566392
0.0056959
0.00572478
0.00575025
0.00577208
0.00578999
0.00580374
0.00581306
0.0058178
0.00581794
0.00581355
0.00580495
0.00579245
0.00577638
0.00575703
0.00573461
0.00570938
0.00568152
0.0056513
0.00561893
0.00558467
0.00554878
0.00551146
0.00547297
0.00543348
0.0053932
0.00535232
0.00531103
0.00526945
0.00522767
0.00518565
0.0051433
0.00510066
0.00505795
0.00501539
0.00497302
0.00493082
0.00488887
0.00484719
0.00480569
0.00476431
0.00472295
0.00468148
0.00463982
0.00459797
0.00455614
0.00451434
0.0044726
0.00443081
0.00438884
0.00434682
0.00430488
0.00426315
0.00422165
0.00418035
0.00413906
0.00409746
0.00405558
0.00401364
0.00397176
0.0039298
0.00388722
0.0038428
3.25918e-06
0.000154221
0.00033654
0.000495229
0.000629168
0.0007421
0.000837782
0.000919817
0.000991278
0.00105471
0.00111215
0.00116524
0.00121522
0.00126308
0.00130953
0.00135509
0.00140015
0.00144496
0.00148969
0.00153446
0.00157931
0.00162425
0.00166929
0.00171444
0.00175964
0.00180487
0.00185007
0.00189519
0.00194021
0.0019851
0.00202981
0.00207432
0.00211858
0.00216257
0.00220628
0.00224968
0.00229276
0.00233553
0.00237798
0.00242012
0.00246196
0.00250351
0.0025448
0.00258587
0.00262674
0.00266744
0.00270803
0.00274855
0.00278904
0.00282953
0.00287006
0.00291065
0.00295134
0.00299211
0.00303298
0.00307395
0.00311502
0.00315619
0.00319746
0.00323884
0.0032803
0.00332186
0.00336352
0.00340527
0.0034471
0.00348901
0.00353099
0.00357303
0.00361513
0.00365728
0.00369948
0.00374171
0.00378399
0.00382631
0.00386867
0.00391106
0.0039535
0.00399597
0.00403848
0.00408102
0.00412361
0.00416623
0.0042089
0.00425163
0.00429443
0.00433731
0.00438031
0.00442343
0.00446671
0.00451018
0.00455388
0.00459781
0.00464202
0.00468653
0.0047314
0.00477663
0.00482223
0.00486812
0.00491423
0.00496053
0.00500725
0.00505454
0.00510243
0.00515093
0.0052
0.00524961
0.00529969
0.00535014
0.00540086
0.00545169
0.00550243
0.00555288
0.00560278
0.00565185
0.00569977
0.0057462
0.00579079
0.00583318
0.00587296
0.0059098
0.00594334
0.00597333
0.00599945
0.00602139
0.0060388
0.00605153
0.00605948
0.00606269
0.0060613
0.00605547
0.00604549
0.00603159
0.00601405
0.00599311
0.00596902
0.00594205
0.00591247
0.00588052
0.00584648
0.00581059
0.00577311
0.00573425
0.00569423
0.00565325
0.00561148
0.0055691
0.0055262
0.00548282
0.00543899
0.00539473
0.00535026
0.00530566
0.00526105
0.00521646
0.00517188
0.00512737
0.00508284
0.00503831
0.00499364
0.00494882
0.00490378
0.00485854
0.00481317
0.00476771
0.00472212
0.00467634
0.00463037
0.00458426
0.0045381
0.00449203
0.00444604
0.00440014
0.00435426
0.00430824
0.0042621
0.00421597
0.00416998
0.00412405
0.0040778
0.00403032
3.37451e-06
0.000156775
0.000343155
0.000507177
0.000647023
0.00076594
0.000867441
0.00095494
0.00103142
0.00109938
0.00116084
0.00121744
0.00127048
0.00132095
0.00136962
0.00141707
0.00146372
0.00150984
0.00155566
0.00160134
0.00164694
0.00169252
0.0017381
0.00178368
0.00182924
0.00187475
0.00192019
0.00196549
0.00201065
0.00205564
0.00210042
0.00214497
0.00218925
0.00223323
0.00227688
0.00232021
0.0023632
0.00240586
0.00244819
0.0024902
0.00253191
0.00257334
0.00261449
0.00265542
0.00269614
0.00273668
0.00277709
0.00281739
0.00285763
0.00289783
0.00293803
0.00297824
0.00301849
0.00305877
0.00309912
0.00313952
0.00317999
0.00322053
0.00326115
0.00330183
0.00334259
0.00338343
0.00342435
0.00346535
0.00350642
0.00354756
0.00358878
0.00363005
0.00367139
0.00371279
0.00375423
0.00379572
0.00383726
0.00387882
0.00392042
0.00396205
0.0040037
0.00404538
0.00408706
0.00412877
0.00417049
0.00421223
0.004254
0.0042958
0.00433764
0.00437955
0.00442155
0.00446366
0.00450592
0.00454836
0.00459104
0.00463397
0.0046772
0.0047208
0.0047648
0.00480926
0.0048542
0.00489956
0.00494526
0.00499135
0.00503808
0.00508565
0.00513411
0.00518352
0.00523389
0.00528523
0.00533752
0.00539071
0.0054447
0.00549939
0.00555461
0.00561015
0.00566576
0.00572115
0.00577598
0.00582987
0.00588242
0.0059332
0.00598172
0.00602759
0.00607034
0.00610965
0.00614521
0.00617659
0.00620338
0.00622524
0.00624207
0.00625384
0.00626058
0.00626241
0.00625951
0.00625211
0.00624045
0.0062248
0.00620543
0.00618264
0.0061567
0.00612788
0.00609649
0.00606278
0.00602704
0.00598948
0.00595036
0.0059099
0.00586828
0.00582568
0.00578224
0.00573803
0.00569316
0.00564768
0.00560176
0.00555546
0.00550891
0.00546215
0.00541521
0.00536812
0.00532082
0.00527336
0.00522564
0.00517766
0.00512939
0.00508081
0.00503198
0.00498291
0.00493359
0.00488398
0.00483412
0.00478405
0.00473382
0.00468356
0.0046333
0.00458303
0.00453278
0.00448247
0.00443216
0.00438194
0.00433193
0.00428211
0.0042322
0.00418153
3.43669e-06
0.000157937
0.00034659
0.000514241
0.000658512
0.000782095
0.000888287
0.000980281
0.00106093
0.00113266
0.00119746
0.00125697
0.00131246
0.00136494
0.00141526
0.00146407
0.00151178
0.00155873
0.00160513
0.00165114
0.00169689
0.00174244
0.00178783
0.00183309
0.00187821
0.00192318
0.00196799
0.00201259
0.00205698
0.00210111
0.00214499
0.00218863
0.00223203
0.00227508
0.00231776
0.00236007
0.00240202
0.0024436
0.00248484
0.00252574
0.00256633
0.00260663
0.00264665
0.00268642
0.00272598
0.00276536
0.00280458
0.00284369
0.00288271
0.00292167
0.00296061
0.00299953
0.00303848
0.00307745
0.00311646
0.00315553
0.00319466
0.00323386
0.00327316
0.00331253
0.003352
0.00339157
0.00343124
0.00347101
0.00351089
0.00355087
0.00359095
0.00363113
0.0036714
0.00371176
0.0037522
0.00379272
0.0038333
0.00387394
0.00391462
0.00395534