/*--------------------------------*- C++ -*----------------------------------*\
  =========                 |
  \\      /  F ield         | OpenFOAM: The Open Source CFD Toolbox
   \\    /   O peration     | Website:  https://openfoam.org
    \\  /    A nd           | Version:  7
     \\/     M anipulation  |
\*---------------------------------------------------------------------------*/
FoamFile
{
    version     2.0;
    format      ascii;
    class       volScalarField;
    location    "400";
    object      p;
}
// * * * * * * * * * * * * * * * * * * * * * * * * * * * * * * * * * * * * * //

dimensions      [0 2 -2 0 0 0 0];

internalField   nonuniform List<scalar> 
48900
(
-1.88074
-2.19406
-3.21359
-3.82144
-4.08721
-4.24009
-4.36575
-4.48838
-4.61014
-4.72909
-4.84467
-4.9578
-5.07045
-5.18481
-5.30422
-5.43356
-5.58147
-5.76947
-2.41812
-2.87394
-3.2747
-3.75173
-4.01564
-4.18781
-4.32805
-4.4584
-4.58386
-4.70474
-4.82157
-4.93575
-5.04918
-5.16421
-5.28396
-5.41286
-5.55776
-5.72764
-2.46041
-2.88178
-3.35669
-3.75458
-4.00733
-4.18152
-4.32417
-4.45483
-4.57933
-4.69882
-4.8142
-4.92687
-5.03865
-5.15167
-5.26855
-5.39257
-5.52697
-5.66676
-2.67715
-2.98315
-3.3933
-3.75096
-3.99653
-4.17264
-4.31762
-4.44894
-4.57301
-4.69169
-4.80617
-4.91781
-5.02817
-5.13901
-5.25223
-5.36955
-5.49068
-5.60529
-2.84936
-3.06494
-3.43865
-3.75773
-3.99268
-4.16808
-4.31389
-4.4452
-4.56844
-4.68593
-4.79906
-4.90912
-5.01746
-5.12541
-5.23411
-5.34387
-5.45219
-5.54868
-3.00462
-3.15483
-3.48261
-3.76846
-3.99187
-4.16511
-4.31086
-4.44182
-4.56412
-4.68033
-4.79196
-4.90023
-5.00624
-5.11089
-5.21465
-5.31682
-5.41403
-5.49788
-3.14403
-3.24704
-3.52818
-3.78329
-3.99379
-4.16321
-4.30785
-4.43796
-4.55908
-4.67385
-4.78379
-4.89003
-4.9934
-5.09444
-5.1931
-5.28811
-5.37613
-5.45109
-3.26946
-3.3391
-3.57644
-3.8027
-3.99891
-4.16277
-4.30504
-4.43358
-4.55313
-4.66617
-4.77417
-4.87808
-4.97855
-5.07578
-5.16938
-5.25791
-5.33851
-5.4071
-3.38247
-3.4286
-3.62699
-3.82652
-4.00758
-4.16428
-4.30291
-4.42905
-4.5465
-4.65743
-4.76315
-4.86445
-4.96176
-5.05507
-5.14382
-5.22662
-5.30127
-5.36518
-3.48429
-3.51395
-3.67891
-3.85399
-4.01962
-4.16799
-4.30185
-4.42475
-4.53952
-4.64792
-4.751
-4.8494
-4.94336
-5.03274
-5.11692
-5.19473
-5.26459
-5.32495
-3.57593
-3.59414
-3.73111
-3.88411
-4.03458
-4.17384
-4.30201
-4.42093
-4.53247
-4.6379
-4.73803
-4.83328
-4.92377
-5.00928
-5.08922
-5.1627
-5.22865
-5.28619
-3.64883
-3.66559
-3.78038
-3.9145
-4.05105
-4.18118
-4.30325
-4.41778
-4.52577
-4.62801
-4.72503
-4.8171
-4.90421
-4.98612
-5.06234
-5.1322
-5.19502
-5.25035
-3.7187
-3.72597
-3.82398
-3.94276
-4.0673
-4.18902
-4.30517
-4.4153
-4.5197
-4.61878
-4.7128
-4.80186
-4.8859
-4.96465
-5.03773
-5.10466
-5.16502
-5.21862
-3.78887
-3.78879
-3.87117
-3.97464
-4.08655
-4.19883
-4.30801
-4.4128
-4.51283
-4.60807
-4.69851
-4.78409
-4.86467
-4.94001
-5.00981
-5.07379
-5.13172
-5.18359
-3.85619
-3.85155
-3.91997
-4.00889
-4.10806
-4.21024
-4.31157
-4.41014
-4.50502
-4.59575
-4.68205
-4.76371
-4.84051
-4.91225
-4.97872
-5.03977
-5.09533
-5.14549
-3.91626
-3.91064
-3.96724
-4.04309
-4.13012
-4.22209
-4.3151
-4.40684
-4.49595
-4.58162
-4.66333
-4.74073
-4.81356
-4.88161
-4.94477
-5.00297
-5.05624
-5.10473
-3.96277
-3.96086
-4.00817
-4.07316
-4.14954
-4.23206
-4.31697
-4.4018
-4.48494
-4.56532
-4.64225
-4.71529
-4.78412
-4.84856
-4.90854
-4.96403
-5.01514
-5.06202
-3.98622
-3.99464
-4.03559
-4.09279
-4.16113
-4.2361
-4.31421
-4.39298
-4.4707
-4.54617
-4.61863
-4.68757
-4.75269
-4.81381
-4.87087
-4.92392
-4.97304
-5.0184
-3.97068
-4.00017
-4.03855
-4.0924
-4.15699
-4.22807
-4.30229
-4.37726
-4.45126
-4.52315
-4.59218
-4.65789
-4.72
-4.77841
-4.83307
-4.88407
-4.9315
-4.97552
-3.91909
-3.96346
-4.00495
-4.06231
-4.13001
-4.20333
-4.27881
-4.35412
-4.42771
-4.49865
-4.56636
-4.63056
-4.69108
-4.74793
-4.80114
-4.85083
-4.89714
-4.94024
-3.84717
-3.90524
-3.95419
-4.02008
-4.09566
-4.17536
-4.25549
-4.33388
-4.40932
-4.48118
-4.54919
-4.61325
-4.6734
-4.72973
-4.78238
-4.83151
-4.8773
-4.91995
-3.75745
-3.82945
-3.89066
-3.9699
-4.05738
-4.14641
-4.23322
-4.3161
-4.39436
-4.46788
-4.53675
-4.60118
-4.66137
-4.71756
-4.76997
-4.81881
-4.86432
-4.90669
-3.65251
-3.74012
-3.81938
-3.91678
-4.01958
-4.11992
-4.21441
-4.3022
-4.38346
-4.45871
-4.52853
-4.59342
-4.65377
-4.70994
-4.76223
-4.81091
-4.85623
-4.89841
-3.53388
-3.64004
-3.74462
-3.8647
-3.98561
-4.09821
-4.20045
-4.29281
-4.37664
-4.45328
-4.52382
-4.58903
-4.64949
-4.70564
-4.75782
-4.80636
-4.85152
-4.89355
-3.40286
-3.53128
-3.67028
-3.8168
-3.9578
-4.08258
-4.1918
-4.28777
-4.37336
-4.4508
-4.52166
-4.58697
-4.64741
-4.70346
-4.75552
-4.8039
-4.8489
-4.8908
-3.262
-3.41593
-3.59978
-3.77533
-3.93727
-4.07314
-4.18792
-4.28616
-4.37252
-4.4501
-4.5209
-4.5861
-4.64641
-4.70234
-4.75426
-4.80249
-4.84735
-4.88915
-3.11547
-3.29696
-3.53415
-3.74116
-3.92331
-4.06866
-4.18737
-4.2866
-4.37289
-4.45016
-4.52069
-4.58572
-4.64594
-4.70181
-4.75366
-4.80179
-4.84652
-4.88827
-2.9572
-3.1909
-3.4722
-3.71223
-3.91387
-4.06778
-4.18937
-4.2888
-4.3746
-4.45137
-4.52161
-4.58652
-4.64672
-4.7026
-4.75446
-4.80253
-4.84713
-4.88875
-3.3643
-2.98229
-3.39363
-3.69381
-3.91512
-4.0767
-4.19914
-4.2969
-4.38068
-4.45583
-4.52499
-4.58925
-4.64907
-4.70474
-4.75645
-4.80435
-4.84866
-4.88983
3.31625
-3.78792
-3.56796
-3.76737
-3.95173
-4.09709
-4.2089
-4.29974
-4.38007
-4.45415
-4.5236
-4.58879
-4.64975
-4.70653
-4.7592
-4.80787
-4.85265
-4.89371
-6.09381
-6.09292
-6.09366
-6.09581
-6.09896
-6.10272
-6.10689
-6.11132
-6.11598
-6.1209
-6.12615
-6.13178
-6.13784
-6.14441
-6.15152
-6.15925
-6.16762
-6.17666
-6.18641
-6.19688
-6.20806
-6.21996
-6.23256
-6.24585
-6.2598
-6.27438
-6.28956
-6.30531
-6.32157
-6.33832
-6.35552
-6.37312
-6.39109
-6.40938
-6.42798
-6.44679
-6.46585
-6.48505
-6.50439
-6.52386
-6.54339
-6.56293
-6.5825
-6.60204
-6.62149
-6.64089
-6.66018
-6.67933
-6.6984
-6.71739
-6.73636
-6.7553
-6.77501
-6.79633
-6.81614
-6.82571
-6.83021
-6.83096
-6.84107
-6.85706
-6.87039
-6.89332
-6.90324
-6.90448
-6.90644
-6.897
-6.88119
-6.88175
-6.90698
-6.90403
-6.87855
-6.84381
-6.81111
-6.77836
-6.74683
-6.71009
-6.69958
-6.68559
-6.64047
-6.56158
-6.46841
-6.38856
-6.30572
-6.21688
-6.12043
-6.01575
-5.90255
-5.77986
-5.64687
-5.50417
-5.35245
-5.19019
-5.01651
-4.83106
-4.63355
-4.42387
-4.20195
-3.96704
-3.71999
-3.46095
-3.18955
-2.90618
-2.61078
-2.30382
-1.98546
-1.6565
-1.31736
-0.969061
-0.612294
-0.248367
0.121829
0.496692
0.875129
1.25554
1.63644
2.01602
2.39289
2.76541
3.13167
3.49053
3.84022
4.17954
4.50711
4.82246
5.12566
5.41829
5.70627
5.99033
6.22586
6.44341
6.64572
6.84408
7.03345
7.20115
7.35227
7.49157
7.61608
7.72748
7.82764
7.91699
7.99643
8.06627
8.12777
8.18141
8.22873
8.27092
8.30902
8.33648
8.36228
8.38553
8.42056
8.43976
8.46371
8.48364
8.5152
8.54708
8.57461
8.60678
8.64442
8.68719
8.73528
8.7868
8.8427
8.90126
8.97831
9.05252
9.15097
9.25446
9.36443
9.48306
9.61263
9.75741
9.89491
10.0417
10.1974
10.3623
10.5356
10.7165
10.9057
11.109
-6.0893
-6.09235
-6.09336
-6.09495
-6.09645
-6.098
-6.09979
-6.10196
-6.10459
-6.10772
-6.11139
-6.11562
-6.12043
-6.12584
-6.13189
-6.13862
-6.14606
-6.15423
-6.16315
-6.17284
-6.18329
-6.19449
-6.20644
-6.21911
-6.23247
-6.24649
-6.26113
-6.27636
-6.29213
-6.30841
-6.32514
-6.3423
-6.35983
-6.37769
-6.39584
-6.41425
-6.43288
-6.45167
-6.47061
-6.48963
-6.50873
-6.52785
-6.54696
-6.56605
-6.58506
-6.60395
-6.62268
-6.64113
-6.65928
-6.67704
-6.69441
-6.71143
-6.72776
-6.74254
-6.75499
-6.76895
-6.78667
-6.80671
-6.82163
-6.83283
-6.84068
-6.84084
-6.84284
-6.84851
-6.85194
-6.85949
-6.86843
-6.86221
-6.83377
-6.81345
-6.80545
-6.79943
-6.78758
-6.76878
-6.73884
-6.704
-6.64762
-6.58506
-6.52855
-6.48146
-6.43145
-6.36238
-6.28405
-6.19803
-6.10424
-6.00221
-5.89176
-5.77226
-5.64256
-5.50366
-5.35544
-5.19633
-5.02612
-4.84459
-4.65143
-4.44631
-4.22915
-3.99921
-3.75697
-3.50301
-3.23697
-2.959
-2.6691
-2.3676
-2.0549
-1.73144
-1.39788
-1.05495
-0.703531
-0.344645
0.0206374
0.391024
0.765263
1.14193
1.51951
1.8964
2.27112
2.64212
3.00752
3.36622
3.71645
4.05702
4.3864
4.70385
5.00866
5.29876
5.56536
5.83066
6.09722
6.33828
6.56099
6.76213
6.94917
7.12329
7.28328
7.42725
7.5579
7.67572
7.78088
7.87507
7.95872
8.03294
8.0984
8.15597
8.20617
8.24917
8.28304
8.31893
8.35797
8.39218
8.40889
8.44125
8.46428
8.49515
8.51524
8.5425
8.57949
8.611
8.64797
8.68949
8.73531
8.78563
8.83899
8.91123
8.97723
9.06297
9.15262
9.24909
9.35548
9.47097
9.59644
9.72723
9.88313
10.0246
10.1771
10.3399
10.5115
10.6916
10.8817
11.0885
-6.07722
-6.08564
-6.08831
-6.09042
-6.09188
-6.09292
-6.09386
-6.09496
-6.09642
-6.09838
-6.10092
-6.10409
-6.10794
-6.11249
-6.11775
-6.12376
-6.13053
-6.13807
-6.14639
-6.15549
-6.16537
-6.17601
-6.1874
-6.19951
-6.21232
-6.22579
-6.23988
-6.25457
-6.2698
-6.28554
-6.30175
-6.31838
-6.33539
-6.35275
-6.3704
-6.38832
-6.40646
-6.42479
-6.44327
-6.46186
-6.48053
-6.49924
-6.51796
-6.53664
-6.55526
-6.57376
-6.59211
-6.61025
-6.62816
-6.6458
-6.66318
-6.68027
-6.69698
-6.71291
-6.72742
-6.74075
-6.75411
-6.76782
-6.78076
-6.7921
-6.80074
-6.80616
-6.81003
-6.81447
-6.81921
-6.82372
-6.82525
-6.81895
-6.80405
-6.78867
-6.77855
-6.77008
-6.75721
-6.73689
-6.70684
-6.66875
-6.62213
-6.57028
-6.51737
-6.46496
-6.40858
-6.34288
-6.26832
-6.18561
-6.09489
-5.99596
-5.8886
-5.77237
-5.64634
-5.51119
-5.36661
-5.21133
-5.04529
-4.86808
-4.6795
-4.47919
-4.26706
-4.04219
-3.80489
-3.55632
-3.29569
-3.02316
-2.7388
-2.44284
-2.13568
-1.81772
-1.48951
-1.15186
-0.805508
-0.451443
-0.0906943
0.275526
0.64594
1.01927
1.39401
1.76866
2.14175
2.51168
2.87668
3.23564
3.5868
3.92894
4.26038
4.58026
4.88752
5.18101
5.46041
5.73919
6.00431
6.24865
6.47709
6.68539
6.87802
7.05666
7.22158
7.37124
7.50728
7.6298
7.73957
7.83796
7.92584
8.0039
8.07307
8.13372
8.18657
8.23072
8.26526
8.303
8.34852
8.38605
8.40402
8.4346
8.46559
8.49856
8.51541
8.53652
8.5749
8.61054
8.64765
8.68783
8.7327
8.78157
8.84039
8.91449
8.97903
9.06649
9.14895
9.24034
9.34352
9.45613
9.57734
9.70172
9.84693
9.99536
10.1507
10.3134
10.484
10.6629
10.8517
11.055
-6.0616
-6.07393
-6.07975
-6.08372
-6.08635
-6.08807
-6.08931
-6.09041
-6.09166
-6.09328
-6.09539
-6.09812
-6.10151
-6.10561
-6.11046
-6.11607
-6.12245
-6.12961
-6.13756
-6.14629
-6.15578
-6.16604
-6.17703
-6.18873
-6.20112
-6.21416
-6.22781
-6.24205
-6.25683
-6.27212
-6.28788
-6.30406
-6.32062
-6.33754
-6.35477
-6.37227
-6.39002
-6.40795
-6.42606
-6.4443
-6.46263
-6.48104
-6.49947
-6.51789
-6.53627
-6.55456
-6.57273
-6.59072
-6.60854
-6.62616
-6.64355
-6.66058
-6.67709
-6.69276
-6.70729
-6.72059
-6.73297
-6.74486
-6.75653
-6.7676
-6.77723
-6.78476
-6.79054
-6.79533
-6.79926
-6.80169
-6.80134
-6.79685
-6.78798
-6.7767
-6.76511
-6.75266
-6.73712
-6.71624
-6.68834
-6.65307
-6.61117
-6.56444
-6.51441
-6.46115
-6.40306
-6.33813
-6.26571
-6.18547
-6.09736
-6.00108
-5.89647
-5.78296
-5.65987
-5.52782
-5.38639
-5.23441
-5.07179
-4.89813
-4.71323
-4.51674
-4.30852
-4.08758
-3.85406
-3.60951
-3.35299
-3.08452
-2.80413
-2.51208
-2.20869
-1.89443
-1.56983
-1.2355
-0.89224
-0.540959
-0.18282
0.181219
0.549851
0.921807
1.29555
1.66972
2.04278
2.41326
2.77923
3.13964
3.49272
3.83726
4.17138
4.4943
4.8049
5.10266
5.38853
5.66698
5.93262
6.1817
6.41472
6.62891
6.82628
7.00921
7.17777
7.33169
7.47163
7.59813
7.71184
7.81379
7.90492
7.98599
8.05775
8.12082
8.17557
8.2218
8.26006
8.29855
8.34259
8.37908
8.4018
8.43075
8.46519
8.49605
8.51355
8.53214
8.56652
8.60489
8.64204
8.68061
8.72346
8.77483
8.83585
8.90322
8.97377
9.05347
9.13319
9.22283
9.32347
9.43352
9.55196
9.67562
9.80862
9.9559
10.1131
10.2758
10.4455
10.6231
10.8096
11.0089
-6.04643
-6.06057
-6.06962
-6.07591
-6.08028
-6.0833
-6.08548
-6.08724
-6.08893
-6.09081
-6.09305
-6.09582
-6.09918
-6.10322
-6.10797
-6.11347
-6.11972
-6.12673
-6.13451
-6.14305
-6.15234
-6.16236
-6.17309
-6.18451
-6.1966
-6.20932
-6.22265
-6.23654
-6.25098
-6.26591
-6.28131
-6.29713
-6.31334
-6.32992
-6.34682
-6.36398
-6.38142
-6.39906
-6.41688
-6.43487
-6.45296
-6.47115
-6.48937
-6.50762
-6.52584
-6.544
-6.56208
-6.57999
-6.59768
-6.61517
-6.63232
-6.64907
-6.66525
-6.68071
-6.69529
-6.70895
-6.72176
-6.73401
-6.74566
-6.75652
-6.76622
-6.77433
-6.78091
-6.78607
-6.78968
-6.79143
-6.79086
-6.78745
-6.78102
-6.77189
-6.76047
-6.74662
-6.72956
-6.70808
-6.68129
-6.6487
-6.61056
-6.56734
-6.5194
-6.46672
-6.40874
-6.34458
-6.27351
-6.19514
-6.10909
-6.01499
-5.9126
-5.80144
-5.68092
-5.55175
-5.41315
-5.26395
-5.10416
-4.93341
-4.75152
-4.55804
-4.3528
-4.13487
-3.90429
-3.66274
-3.40914
-3.14352
-2.86594
-2.57653
-2.27562
-1.96365
-1.64115
-1.30872
-0.967113
-0.617139
-0.259945
0.103363
0.471704
0.843704
1.21795
1.59295
1.96721
2.33927
2.70726
3.07001
3.42572
3.77315
4.11046
4.43669
4.75085
5.05269
5.34285
5.62281
5.89035
6.14234
6.37807
6.59603
6.79714
6.98311
7.15438
7.31105
7.45367
7.58274
7.69891
7.80308
7.89615
7.97887
8.05207
8.11632
8.17205
8.21952
8.26014
8.29951
8.34057
8.3753
8.40119
8.42947
8.46191
8.49028
8.50941
8.52867
8.5595
8.5961
8.63245
8.67015
8.71237
8.76327
8.82312
8.88789
8.95812
9.0348
9.11364
9.20152
9.30002
9.40787
9.52389
9.64587
9.77636
9.92085
10.0764
10.2382
10.4068
10.5829
10.7667
10.9621
-6.03426
-6.04852
-6.0602
-6.06864
-6.07481
-6.0793
-6.08268
-6.08541
-6.08787
-6.09035
-6.09306
-6.09618
-6.09981
-6.10405
-6.10894
-6.11453
-6.12083
-6.12786
-6.13562
-6.14411
-6.15331
-6.16322
-6.17381
-6.18507
-6.19697
-6.20949
-6.22259
-6.23625
-6.25043
-6.2651
-6.28024
-6.2958
-6.31176
-6.32808
-6.34472
-6.36166
-6.37886
-6.3963
-6.41395
-6.43175
-6.44969
-6.46775
-6.48586
-6.50402
-6.52216
-6.54023
-6.55824
-6.57609
-6.59374
-6.61111
-6.62815
-6.64477
-6.66089
-6.67637
-6.69114
-6.70518
-6.71852
-6.73121
-6.74316
-6.75418
-6.7641
-6.77262
-6.77971
-6.78516
-6.78889
-6.79068
-6.79031
-6.78754
-6.78221
-6.77415
-6.76332
-6.74943
-6.73205
-6.71062
-6.68465
-6.65385
-6.61808
-6.57724
-6.53131
-6.48002
-6.42297
-6.35983
-6.29007
-6.21321
-6.12886
-6.03664
-5.93632
-5.82724
-5.70879
-5.58199
-5.44573
-5.2988
-5.14135
-4.97307
-4.79359
-4.60243
-4.39955
-4.18397
-3.95541
-3.71617
-3.46459
-3.20099
-2.92515
-2.63731
-2.33779
-2.02704
-1.70545
-1.37369
-1.03242
-0.682532
-0.325109
0.0388446
0.408152
0.781376
1.15725
1.53418
1.91078
2.2854
2.65615
3.022
3.38096
3.73186
4.0727
4.40262
4.72053
5.02617
5.31977
5.60163
5.87058
6.12435
6.36193
6.58247
6.78638
6.97457
7.14774
7.30613
7.45026
7.58075
7.69821
7.80345
7.89738
7.98075
8.05431
8.11879
8.17478
8.22284
8.26459
8.30365
8.34147
8.37432
8.4014
8.4287
8.45764
8.48338
8.50351
8.52388
8.55186
8.58516
8.61992
8.65673
8.6983
8.74777
8.80515
8.86802
8.93642
9.0108
9.08939
9.17628
9.27312
9.37912
9.49343
9.61459
9.7445
9.88693
10.0402
10.2008
10.3682
10.5428
10.7239
10.9162
-6.02646
-6.03964
-6.05314
-6.06327
-6.07097
-6.07681
-6.08137
-6.08512
-6.08845
-6.09167
-6.095
-6.09863
-6.10268
-6.10726
-6.11243
-6.11824
-6.1247
-6.13185
-6.13969
-6.14822
-6.15743
-6.16731
-6.17785
-6.18903
-6.20083
-6.21322
-6.22618
-6.23968
-6.2537
-6.26821
-6.28317
-6.29855
-6.31434
-6.33048
-6.34696
-6.36377
-6.38082
-6.39815
-6.4157
-6.43342
-6.4513
-6.46928
-6.48737
-6.50551
-6.52362
-6.54171
-6.55972
-6.57759
-6.59529
-6.61272
-6.62981
-6.64653
-6.66275
-6.67849
-6.69359
-6.70804
-6.72181
-6.7349
-6.74718
-6.75854
-6.76876
-6.7777
-6.78519
-6.79105
-6.79517
-6.79733
-6.79739
-6.79521
-6.79054
-6.78312
-6.77285
-6.75937
-6.7424
-6.72155
-6.69644
-6.66688
-6.63263
-6.5935
-6.54916
-6.49928
-6.44361
-6.38178
-6.31327
-6.23796
-6.15517
-6.06462
-5.9661
-5.85896
-5.74254
-5.61752
-5.48315
-5.33819
-5.18268
-5.01631
-4.8388
-4.64953
-4.44841
-4.23449
-4.00765
-3.76982
-3.51962
-3.25714
-2.98232
-2.69521
-2.39622
-2.08574
-1.76407
-1.4319
-1.09003
-0.739261
-0.380503
-0.014925
0.356355
0.731877
1.11026
1.49009
1.86981
2.2478
2.62219
2.99169
3.35451
3.70922
4.05401
4.38776
4.70965
5.01888
5.31552
5.59935
5.86967
6.12475
6.36371
6.586
6.79149
6.98121
7.15539
7.3146
7.45932
7.59031
7.70807
7.81332
7.90715
7.99017
8.06333
8.12722
8.1826
8.23043
8.27202
8.3098
8.34464
8.37534
8.40196
8.42752
8.45304
8.47621
8.49621
8.51667
8.54214
8.57218
8.60493
8.64051
8.68103
8.72867
8.78353
8.84426
8.91083
8.98332
9.06143
9.14753
9.24301
9.34759
9.46058
9.58134
9.71106
9.85194
10.0032
10.1625
10.3288
10.5018
10.6806
10.8706
-6.02352
-6.03485
-6.04934
-6.06058
-6.06939
-6.0763
-6.08186
-6.08652
-6.09067
-6.09461
-6.09858
-6.10275
-6.10727
-6.11225
-6.11775
-6.12382
-6.13051
-6.13783
-6.1458
-6.15442
-6.16369
-6.1736
-6.18415
-6.19531
-6.20706
-6.21939
-6.23228
-6.24569
-6.25961
-6.27401
-6.28888
-6.30416
-6.31984
-6.33591
-6.35231
-6.36905
-6.38607
-6.40334
-6.42087
-6.43858
-6.45648
-6.4745
-6.49262
-6.51081
-6.52904
-6.54725
-6.56536
-6.58336
-6.60123
-6.6188
-6.6361
-6.65308
-6.66963
-6.68564
-6.70116
-6.71606
-6.73031
-6.74381
-6.75651
-6.7682
-6.77886
-6.78822
-6.79614
-6.80252
-6.80707
-6.80972
-6.81032
-6.80862
-6.80447
-6.79769
-6.78795
-6.77502
-6.75866
-6.73853
-6.71433
-6.68584
-6.65285
-6.61497
-6.5719
-6.52335
-6.46909
-6.40851
-6.34153
-6.26749
-6.18622
-6.09728
-6.00028
-5.8947
-5.77998
-5.6568
-5.52411
-5.38093
-5.2271
-5.06233
-4.8863
-4.69855
-4.49882
-4.28602
-4.06035
-3.82347
-3.57404
-3.31209
-3.03748
-2.7504
-2.45121
-2.14018
-1.81773
-1.48449
-1.14107
-0.788485
-0.427664
-0.0595893
0.314419
0.693044
1.0749
1.4584
1.84202
2.22404
2.60259
2.97638
3.34347
3.70242
4.05137
4.38928
4.71512
5.02796
5.32763
5.61353
5.88521
6.14135
6.38127
6.60445
6.81101
7.00132
7.17577
7.33489
7.47938
7.60994
7.72707
7.83152
7.92429
8.00621
8.07813
8.14066
8.19468
8.24131
8.2816
8.31739
8.34944
8.37776
8.40256
8.42578
8.44807
8.46853
8.4875
8.50701
8.53009
8.55724
8.58772
8.6217
8.66081
8.70647
8.75889
8.81752
8.8822
8.95307
9.0304
9.11575
9.21014
9.31352
9.42554
9.54591
9.67532
9.81522
9.965
10.1231
10.2883
10.4599
10.6367
10.8249
-6.0253
-6.03436
-6.04907
-6.06084
-6.0703
-6.07793
-6.08421
-6.08959
-6.09441
-6.09897
-6.1035
-6.10817
-6.11313
-6.11849
-6.12431
-6.13066
-6.13757
-6.14508
-6.1532
-6.16194
-6.17129
-6.18126
-6.19184
-6.20302
-6.21477
-6.22707
-6.23994
-6.25333
-6.26722
-6.28159
-6.29641
-6.31167
-6.32734
-6.34337
-6.35978
-6.37652
-6.39355
-6.41088
-6.42845
-6.44626
-6.46424
-6.48237
-6.50065
-6.51901
-6.53739
-6.55579
-6.57413
-6.59237
-6.61045
-6.62832
-6.64597
-6.66326
-6.6802
-6.69666
-6.71263
-6.72804
-6.74275
-6.75672
-6.76985
-6.78205
-6.79314
-6.80295
-6.8114
-6.81817
-6.82328
-6.82651
-6.82762
-6.82654
-6.82296
-6.8167
-6.8076
-6.7953
-6.77963
-6.76025
-6.73695
-6.70937
-6.67746
-6.64067
-6.59887
-6.55154
-6.49842
-6.43921
-6.37353
-6.30086
-6.22092
-6.1334
-6.03787
-5.93362
-5.82014
-5.6988
-5.56771
-5.42583
-5.27343
-5.10997
-4.93516
-4.74854
-4.54983
-4.33784
-4.11281
-3.87636
-3.62714
-3.36514
-3.0904
-2.80276
-2.50273
-2.19055
-1.86664
-1.53149
-1.18599
-0.830953
-0.467236
-0.0961203
0.281437
0.663969
1.04986
1.43767
1.82573
2.21241
2.59572
2.97418
3.34593
3.70954
4.0629
4.40512
4.73513
5.05156
5.35417
5.64215
5.91503
6.17208
6.41262
6.63622
6.84286
7.03303
7.207
7.36542
7.50895
7.63825
7.75386
7.85689
7.94784
8.02774
8.0977
8.15813
8.21014
8.25476
8.29298
8.32628
8.35536
8.38076
8.40311
8.42346
8.44253
8.46025
8.47723
8.49513
8.51591
8.54029
8.56836
8.60049
8.63778
8.68149
8.73161
8.78815
8.85109
8.9205
8.99694
9.08133
9.17476
9.2772
9.38841
9.50837
9.63755
9.77669
9.92541
10.0825
10.2467
10.417
10.5921
10.7789
-6.03124
-6.03789
-6.05219
-6.06392
-6.07358
-6.08156
-6.08827
-6.09412
-6.09942
-6.10445
-6.10941
-6.11449
-6.11981
-6.12549
-6.13159
-6.13818
-6.1453
-6.15298
-6.16123
-6.17008
-6.17953
-6.18956
-6.20019
-6.21142
-6.2232
-6.23554
-6.24841
-6.26181
-6.2757
-6.2901
-6.30495
-6.32024
-6.33594
-6.35203
-6.36852
-6.38535
-6.40249
-6.41994
-6.43765
-6.4556
-6.47376
-6.49212
-6.5106
-6.52918
-6.54784
-6.56652
-6.58515
-6.60371
-6.62217
-6.64044
-6.65844
-6.67616
-6.69355
-6.71051
-6.72694
-6.7428
-6.75808
-6.77255
-6.78616
-6.79879
-6.81035
-6.8206
-6.82957
-6.83696
-6.84258
-6.84629
-6.84797
-6.84739
-6.8444
-6.83873
-6.83027
-6.81862
-6.8036
-6.78498
-6.76251
-6.73594
-6.70488
-6.66914
-6.62835
-6.58214
-6.53011
-6.4721
-6.40762
-6.33627
-6.25759
-6.17134
-6.07712
-5.97415
-5.86212
-5.74211
-5.61223
-5.47168
-5.32035
-5.15793
-4.98405
-4.79824
-4.60017
-4.38866
-4.16398
-3.92751
-3.67814
-3.41582
-3.14028
-2.85159
-2.55014
-2.23615
-1.91024
-1.57289
-1.22458
-0.866303
-0.499162
-0.124207
0.257409
0.64421
1.03471
1.42746
1.82048
2.21233
2.60078
2.9845
3.36128
3.72978
4.08781
4.43452
4.76834
5.08819
5.39353
5.68346
5.95767
6.21531
6.45611
6.67947
6.88564
7.07498
7.24792
7.40498
7.54672
7.67411
7.78757
7.88822
7.97672
8.05415
8.12125
8.17904
8.22836
8.27022
8.30564
8.33593
8.36177
8.38387
8.40303
8.42035
8.43613
8.45099
8.46553
8.48131
8.49974
8.52133
8.54693
8.57704
8.61235
8.65394
8.70195
8.75659
8.81782
8.88591
8.96129
9.04489
9.1374
9.2389
9.34949
9.46912
9.59803
9.73654
9.88443
10.0407
10.204
10.3731
10.5468
10.7326
-6.04056
-6.04484
-6.05819
-6.06943
-6.07888
-6.08685
-6.0937
-6.09977
-6.10534
-6.11066
-6.11592
-6.12128
-6.12686
-6.13277
-6.13909
-6.14586
-6.15314
-6.16095
-6.16933
-6.17828
-6.1878
-6.19792
-6.20861
-6.21988
-6.23171
-6.2441
-6.25702
-6.27048
-6.28444
-6.2989
-6.31383
-6.32922
-6.34502
-6.36125
-6.37787
-6.39484
-6.41219
-6.42982
-6.44776
-6.46595
-6.48438
-6.50297
-6.52179
-6.54071
-6.55969
-6.5787
-6.5977
-6.61669
-6.63556
-6.65424
-6.6727
-6.69091
-6.70877
-6.72623
-6.74316
-6.75952
-6.77533
-6.79021
-6.80435
-6.81746
-6.82945
-6.84018
-6.84961
-6.85742
-6.86354
-6.86779
-6.86994
-6.86992
-6.86747
-6.86235
-6.8545
-6.84345
-6.82908
-6.81123
-6.78956
-6.76373
-6.73355
-6.69872
-6.65889
-6.61362
-6.56274
-6.50582
-6.44239
-6.37226
-6.29468
-6.20964
-6.11651
-6.01473
-5.90384
-5.78489
-5.65619
-5.51661
-5.3663
-5.20482
-5.03144
-4.84611
-4.64844
-4.43727
-4.21266
-3.97584
-3.72589
-3.46264
-3.18594
-2.89572
-2.59256
-2.27638
-1.94791
-1.60765
-1.25618
-0.894319
-0.523263
-0.143933
0.242316
0.633932
1.02962
1.42764
1.82633
2.22365
2.6177
3.00693
3.38899
3.7626
4.12541
4.47628
4.8139
5.13697
5.44478
5.73638
6.01163
6.26949
6.51005
6.73277
6.93791
7.12586
7.29699
7.45188
7.59132
7.71606
7.82678
7.92439
8.00988
8.08401
8.14798
8.20245
8.24855
8.28707
8.3192
8.34602
8.36826
8.38694
8.40269
8.41648
8.42901
8.44065
8.45244
8.46556
8.48139
8.50032
8.5236
8.55146
8.58461
8.62419
8.6702
8.72297
8.78262
8.84942
8.92385
9.00658
9.09828
9.19913
9.30905
9.4283
9.557
9.69507
9.84226
9.99782
10.1603
10.3284
10.5009
10.6856
-6.05235
-6.05445
-6.06645
-6.07679
-6.08568
-6.09333
-6.10005
-6.1061
-6.11174
-6.11717
-6.12258
-6.12809
-6.13383
-6.13989
-6.14634
-6.15324
-6.16062
-6.16853
-6.17698
-6.18602
-6.19561
-6.20579
-6.21655
-6.22788
-6.23979
-6.25225
-6.26528
-6.27882
-6.2929
-6.30747
-6.32253
-6.33806
-6.35405
-6.37046
-6.38729
-6.4045
-6.42206
-6.43996
-6.45818
-6.47667
-6.49542
-6.5144
-6.53354
-6.55283
-6.5722
-6.59166
-6.61109
-6.6305
-6.6498
-6.66898
-6.68791
-6.70662
-6.72493
-6.74283
-6.76027
-6.77712
-6.79325
-6.80874
-6.82326
-6.83683
-6.84922
-6.86044
-6.87019
-6.87843
-6.88487
-6.88959
-6.89219
-6.89266
-6.89064
-6.88611
-6.87867
-6.86817
-6.85441
-6.83715
-6.81619
-6.79099
-6.76161
-6.72755
-6.68846
-6.64425
-6.5943
-6.53833
-6.47599
-6.40673
-6.3303
-6.24634
-6.15422
-6.05342
-5.94356
-5.8256
-5.69771
-5.55893
-5.40943
-5.24849
-5.07568
-4.89076
-4.69305
-4.48185
-4.25704
-4.01971
-3.76887
-3.50439
-3.2261
-2.934
-2.62862
-2.30999
-1.97848
-1.6349
-1.2796
-0.913727
-0.5383
-0.154274
0.236963
0.633853
1.03512
1.43892
1.84352
2.24696
2.64677
3.04164
3.4292
3.80781
4.17513
4.53012
4.87141
5.19731
5.50706
5.8001
6.07604
6.33374
6.57359
6.79529
6.99873
7.18457
7.35329
7.50539
7.6418
7.76321
7.87072
7.96459
8.04641
8.11686
8.17704
8.22773
8.26996
8.30482
8.33315
8.35608
8.37459
8.38954
8.40153
8.4117
8.4207
8.4291
8.43813
8.44843
8.46134
8.47784
8.49851
8.52406
8.55513
8.59252
8.63665
8.68766
8.74576
8.81132
8.88478
8.96669
9.0577
9.15788
9.26739
9.38635
9.51474
9.65257
9.79931
9.95422
10.1159
10.2831
10.4545
10.6382
-6.06566
-6.06585
-6.07621
-6.08536
-6.09341
-6.1005
-6.10684
-6.11266
-6.11818
-6.12356
-6.12896
-6.13451
-6.14029
-6.1464
-6.15291
-6.15986
-6.16731
-6.17527
-6.18379
-6.19288
-6.20254
-6.21279
-6.22361
-6.23502
-6.24702
-6.25959
-6.27272
-6.2864
-6.30061
-6.31535
-6.33058
-6.34632
-6.36253
-6.37918
-6.39624
-6.41372
-6.43162
-6.44983
-6.46838
-6.48723
-6.50639
-6.5257
-6.54522
-6.56493
-6.58474
-6.60462
-6.62452
-6.64437
-6.66413
-6.68374
-6.70312
-6.72223
-6.74097
-6.75928
-6.77716
-6.79441
-6.81088
-6.82669
-6.84155
-6.85548
-6.86818
-6.87969
-6.88973
-6.89822
-6.90505
-6.91004
-6.91295
-6.9137
-6.91208
-6.90781
-6.90087
-6.89089
-6.87759
-6.86092
-6.84033
-6.81587
-6.78719
-6.75378
-6.71543
-6.67194
-6.62277
-6.56764
-6.50615
-6.43776
-6.36228
-6.27922
-6.18804
-6.0882
-5.97903
-5.86206
-5.73502
-5.59686
-5.44777
-5.28724
-5.11482
-4.92992
-4.73211
-4.52066
-4.29544
-4.05738
-3.80525
-3.53929
-3.25928
-2.96501
-2.65705
-2.33548
-2.00085
-1.65351
-1.29409
-0.923869
-0.543736
-0.154582
0.242102
0.644893
1.05197
1.46181
1.87245
2.28184
2.68777
3.08841
3.48145
3.86505
4.23699
4.59586
4.94007
5.2684
5.58005
5.87404
6.14992
6.40706
6.64564
6.86553
7.06682
7.24984
7.4156
7.56445
7.69712
7.81478
7.91815
8.008
8.08567
8.15193
8.20776
8.25421
8.29221
8.32294
8.34716
8.36589
8.38043
8.39144
8.39964
8.40592
8.41122
8.41639
8.42227
8.42966
8.43977
8.45351
8.47177
8.49509
8.52419
8.5595
8.60171
8.65099
8.70754
8.77195
8.84455
8.92565
9.01606
9.11575
9.22495
9.34371
9.47179
9.6094
9.75575
9.91009
10.0712
10.2376
10.408
10.5905
-6.07958
-6.0782
-6.08673
-6.09451
-6.10151
-6.10781
-6.11359
-6.11901
-6.12424
-6.12943
-6.13469
-6.14014
-6.14587
-6.15194
-6.15843
-6.16539
-6.17283
-6.18082
-6.18936
-6.1985
-6.20821
-6.21852
-6.22943
-6.24094
-6.25305
-6.26574
-6.27902
-6.29284
-6.30723
-6.32217
-6.33762
-6.35357
-6.37
-6.38695
-6.40432
-6.42211
-6.44032
-6.45888
-6.47779
-6.49701
-6.51649
-6.53626
-6.5562
-6.5763
-6.59648
-6.61672
-6.63703
-6.65725
-6.67736
-6.69733
-6.71712
-6.73651
-6.75561
-6.77422
-6.79236
-6.80982
-6.82657
-6.84254
-6.8576
-6.87163
-6.88448
-6.8962
-6.90637
-6.91503
-6.92194
-6.92708
-6.9302
-6.93108
-6.92971
-6.92566
-6.91892
-6.90918
-6.89627
-6.87999
-6.85993
-6.83587
-6.80763
-6.77486
-6.73705
-6.69423
-6.64574
-6.59128
-6.53059
-6.463
-6.38828
-6.30605
-6.21569
-6.11664
-6.00838
-5.89198
-5.76553
-5.62792
-5.47922
-5.31894
-5.14678
-4.96194
-4.76393
-4.55222
-4.32651
-4.08726
-3.83377
-3.56625
-3.28414
-2.98743
-2.67667
-2.35213
-2.01368
-1.66238
-1.29859
-0.923668
-0.538192
-0.14373
0.258493
0.667219
1.08067
1.49678
1.91361
2.32944
2.74138
3.14784
3.54611
3.93451
4.31063
4.6727
5.01991
5.35009
5.66297
5.95721
6.2323
6.48826
6.72507
6.94264
7.14095
7.32084
7.48291
7.62772
7.75618
7.86948
7.96824
8.05363
8.12658
8.1883
8.23946
8.28138
8.3149
8.341
8.36089
8.37548
8.38548
8.39243
8.39651
8.39891
8.40069
8.40231
8.4049
8.40946
8.41684
8.42798
8.4438
8.4648
8.49182
8.52527
8.56554
8.61329
8.66858
8.73177
8.80346
8.88406
8.9739
9.07322
9.18222
9.3007
9.42864
9.56588
9.71194
9.86585
10.0263
10.192
10.3616
10.543
-6.09332
-6.09073
-6.09737
-6.10365
-6.10946
-6.11485
-6.11991
-6.12477
-6.12957
-6.13442
-6.13942
-6.14467
-6.15024
-6.1562
-6.1626
-6.16948
-6.1769
-6.18487
-6.19342
-6.20257
-6.21233
-6.2227
-6.23369
-6.2453
-6.25752
-6.27035
-6.28377
-6.29777
-6.31234
-6.32747
-6.34315
-6.35935
-6.37606
-6.39326
-6.41092
-6.42902
-6.44753
-6.46642
-6.48567
-6.50522
-6.52506
-6.54513
-6.56539
-6.58579
-6.60629
-6.62684
-6.64738
-6.66785
-6.68821
-6.70838
-6.72829
-6.74786
-6.76704
-6.78577
-6.80391
-6.82142
-6.83823
-6.85421
-6.86921
-6.88314
-6.89598
-6.90755
-6.91759
-6.9262
-6.93307
-6.93816
-6.94123
-6.94217
-6.94075
-6.93685
-6.93019
-6.92059
-6.9079
-6.89176
-6.87204
-6.84837
-6.82053
-6.7881
-6.75096
-6.70867
-6.66076
-6.60702
-6.54692
-6.48015
-6.40613
-6.32463
-6.23509
-6.13678
-6.02927
-5.91341
-5.78744
-5.65012
-5.50164
-5.34167
-5.16978
-4.98501
-4.78672
-4.57453
-4.34816
-4.10772
-3.85296
-3.58366
-3.29948
-3.00007
-2.68633
-2.35816
-2.01612
-1.66062
-1.29203
-0.912188
-0.521295
-0.121057
0.286981
0.701939
1.12161
1.54404
1.96726
2.3892
2.80715
3.21947
3.62297
4.01592
4.3958
4.76109
5.11021
5.44179
5.75495
6.04874
6.32279
6.57706
6.81134
7.02551
7.22041
7.39629
7.55405
7.69431
7.81809
7.92655
8.02034
8.10066
8.16854
8.22518
8.2714
8.30834
8.33729
8.35859
8.37383
8.384
8.38963
8.39217
8.39218
8.39075
8.38881
8.38704
8.38633
8.38809
8.39269
8.40139
8.41464
8.43357
8.45849
8.49008
8.5288
8.57514
8.62901
8.69125
8.76225
8.8423
8.93173
9.03072
9.13943
9.25782
9.3857
9.52272
9.66843
9.82196
9.98192
10.1468
10.3155
10.4958
-6.10688
-6.10298
-6.10774
-6.11247
-6.11702
-6.12137
-6.12559
-6.12976
-6.13399
-6.13837
-6.14298
-6.14791
-6.15321
-6.15895
-6.16518
-6.17193
-6.17925
-6.18716
-6.19567
-6.20481
-6.21458
-6.22499
-6.23604
-6.24772
-6.26004
-6.27298
-6.28654
-6.3007
-6.31544
-6.33076
-6.34663
-6.36304
-6.37995
-6.39737
-6.41525
-6.43358
-6.45232
-6.47143
-6.4909
-6.51066
-6.53069
-6.55094
-6.57135
-6.59189
-6.6125
-6.63313
-6.65371
-6.67418
-6.6945
-6.71459
-6.73439
-6.75384
-6.77286
-6.79138
-6.80931
-6.82657
-6.84307
-6.85872
-6.87342
-6.88706
-6.89954
-6.91073
-6.92053
-6.9288
-6.9354
-6.94018
-6.94304
-6.94377
-6.94222
-6.93819
-6.9315
-6.92194
-6.90927
-6.89329
-6.87372
-6.8503
-6.82274
-6.79074
-6.75398
-6.7121
-6.66474
-6.61153
-6.55208
-6.48592
-6.41261
-6.33187
-6.24313
-6.14573
-6.03924
-5.92367
-5.79787
-5.66114
-5.51293
-5.35275
-5.18104
-4.99637
-4.79777
-4.58512
-4.3581
-4.11664
-3.86032
-3.58896
-3.30242
-3.00062
-2.68374
-2.35203
-2.00593
-1.64594
-1.27283
-0.88763
-0.491385
-0.0854389
0.328823
0.749754
1.1756
1.60436
2.03394
2.46212
2.88594
3.3034
3.71157
4.10847
4.49156
4.8591
5.20958
5.54154
5.85425
6.14675
6.41903
6.67038
6.90133
7.11192
7.30258
7.47391
7.62692
7.76216
7.88081
7.98398
8.07248
8.14739
8.20999
8.26131
8.30238
8.33431
8.35826
8.37476
8.38537
8.39093
8.39234
8.39055
8.38657
8.38149
8.37594
8.3708
8.36708
8.36582
8.36787
8.37387
8.38504
8.40169
8.4247
8.45461
8.49183
8.53675
8.58961
8.65104