/*--------------------------------*- C++ -*----------------------------------*\
  =========                 |
  \\      /  F ield         | OpenFOAM: The Open Source CFD Toolbox
   \\    /   O peration     | Website:  https://openfoam.org
    \\  /    A nd           | Version:  7
     \\/     M anipulation  |
\*---------------------------------------------------------------------------*/
FoamFile
{
    version     2.0;
    format      ascii;
    class       surfaceScalarField;
    location    "400";
    object      phi;
}
// * * * * * * * * * * * * * * * * * * * * * * * * * * * * * * * * * * * * * //

dimensions      [0 3 -1 0 0 0 0];

internalField   nonuniform List<scalar> 
97240
(
-6.49261e-08
2.62354e-08
1.63289e-06
-1.43916e-06
1.36167e-06
7.74878e-08
-1.28664e-06
1.21934e-06
6.72999e-08
-1.16114e-06
1.11567e-06
4.54775e-08
-1.07952e-06
1.05174e-06
2.77775e-08
-1.0289e-06
1.01013e-06
1.87746e-08
-9.93414e-07
9.78664e-07
1.47493e-08
-9.64837e-07
9.5225e-07
1.25855e-08
-9.40278e-07
9.29336e-07
1.09417e-08
-9.18942e-07
9.09477e-07
9.46305e-09
-9.00531e-07
8.92418e-07
8.11231e-09
-8.84767e-07
8.77845e-07
6.92069e-09
-8.71342e-07
8.65481e-07
5.85943e-09
-8.59998e-07
8.55085e-07
4.91206e-09
-8.50527e-07
8.46491e-07
4.03464e-09
-8.42818e-07
8.39669e-07
3.14754e-09
-8.36959e-07
8.34888e-07
2.06971e-09
-8.3356e-07
8.33129e-07
4.29499e-10
-2.06757e-08
1.96649e-08
1.70963e-06
-1.72713e-06
1.73403e-06
-8.86187e-08
8.17214e-08
-1.7382e-06
1.73855e-06
-9.01221e-08
8.97813e-08
-1.73463e-06
1.72699e-06
-7.47928e-08
8.24382e-08
-1.71593e-06
1.70269e-06
-5.72921e-08
7.05281e-08
-1.6875e-06
1.67167e-06
-4.47969e-08
6.06243e-08
-1.65508e-06
1.63878e-06
-3.66724e-08
5.29645e-08
-1.62238e-06
1.60671e-06
-3.10635e-08
4.67309e-08
-1.59123e-06
1.57663e-06
-2.67312e-08
4.1332e-08
-1.56233e-06
1.54892e-06
-2.31209e-08
3.65289e-08
-1.53584e-06
1.52362e-06
-2.00128e-08
3.22326e-08
-1.51174e-06
1.50066e-06
-1.73159e-08
2.83862e-08
-1.48993e-06
1.47994e-06
-1.49429e-08
2.49225e-08
-1.47029e-06
1.46135e-06
-1.28244e-08
2.17648e-08
-1.45274e-06
1.4448e-06
-1.08739e-08
1.88103e-08
-1.43721e-06
1.43027e-06
-8.96045e-09
1.58945e-08
-1.42372e-06
1.41786e-06
-6.81323e-09
1.26792e-08
-1.41249e-06
1.40784e-06
-3.44637e-09
8.0949e-09
-1.82217e-08
1.66468e-08
1.83287e-06
-1.83967e-06
1.84509e-06
-7.53022e-08
6.98785e-08
-1.85006e-06
1.85454e-06
-8.54813e-08
8.10047e-08
-1.85815e-06
1.8606e-06
-8.18873e-08
7.94266e-08
-1.86211e-06
1.86274e-06
-7.31333e-08
7.25018e-08
-1.86266e-06
1.86199e-06
-6.55428e-08
6.62038e-08
-1.86081e-06
1.85921e-06
-5.94815e-08
6.10805e-08
-1.85716e-06
1.85479e-06
-5.4316e-08
5.66893e-08
-1.85201e-06
1.84895e-06
-4.95562e-08
5.26084e-08
-1.84552e-06
1.84189e-06
-4.50451e-08
4.868e-08
-1.83792e-06
1.83381e-06
-4.07691e-08
4.48748e-08
-1.82943e-06
1.82497e-06
-3.67357e-08
4.11896e-08
-1.82029e-06
1.81562e-06
-3.29312e-08
3.76066e-08
-1.81078e-06
1.80601e-06
-2.93177e-08
3.40876e-08
-1.80114e-06
1.7964e-06
-2.58141e-08
3.05512e-08
-1.79163e-06
1.78705e-06
-2.2258e-08
2.6832e-08
-1.78252e-06
1.77823e-06
-1.82956e-08
2.25853e-08
-1.77401e-06
1.76992e-06
-1.29974e-08
1.70829e-08
-1.51404e-08
1.3846e-08
1.964e-06
-1.96903e-06
1.97359e-06
-6.51691e-08
6.06015e-08
-1.97779e-06
1.98171e-06
-7.6991e-08
7.30706e-08
-1.98525e-06
1.98812e-06
-7.67038e-08
7.38331e-08
-1.99047e-06
1.9923e-06
-7.10177e-08
6.91781e-08
-1.99381e-06
1.99502e-06
-6.55173e-08
6.43088e-08
-1.99604e-06
1.99687e-06
-6.09054e-08
6.00695e-08
-1.99758e-06
1.99817e-06
-5.69016e-08
5.63168e-08
-1.99865e-06
1.99903e-06
-5.31641e-08
5.27843e-08
-1.99932e-06
1.99952e-06
-4.95566e-08
4.93592e-08
-1.99963e-06
1.99966e-06
-4.60466e-08
4.60137e-08
-1.99962e-06
1.9995e-06
-4.26234e-08
4.27353e-08
-1.99932e-06
1.99908e-06
-3.92609e-08
3.94953e-08
-1.99879e-06
1.99846e-06
-3.59122e-08
3.6244e-08
-1.99808e-06
1.99767e-06
-3.24873e-08
3.28886e-08
-1.99724e-06
1.99679e-06
-2.8815e-08
2.92626e-08
-1.99631e-06
1.99579e-06
-2.45731e-08
2.50848e-08
-1.99518e-06
1.99441e-06
-1.92227e-08
1.99908e-08
-1.26428e-08
1.15841e-08
2.10466e-06
-2.1086e-06
2.1127e-06
-5.64123e-08
5.2304e-08
-2.11663e-06
2.12029e-06
-6.94392e-08
6.57763e-08
-2.12369e-06
2.12655e-06
-7.10652e-08
6.81986e-08
-2.12902e-06
2.13107e-06
-6.72785e-08
6.52276e-08
-2.13287e-06
2.13443e-06
-6.293e-08
6.13705e-08
-2.13586e-06
2.13714e-06
-5.89869e-08
5.77033e-08
-2.13836e-06
2.13947e-06
-5.54212e-08
5.43058e-08
-2.14054e-06
2.14153e-06
-5.20309e-08
5.10383e-08
-2.14249e-06
2.14338e-06
-4.87252e-08
4.78318e-08
-2.14425e-06
2.14506e-06
-4.54812e-08
4.46686e-08
-2.14586e-06
2.1466e-06
-4.22867e-08
4.15377e-08
-2.14734e-06
2.14804e-06
-3.91129e-08
3.84111e-08
-2.14874e-06
2.14941e-06
-3.59098e-08
3.52404e-08
-2.15008e-06
2.15072e-06
-3.2587e-08
3.19404e-08
-2.15137e-06
2.15198e-06
-2.89899e-08
2.8374e-08
-2.15258e-06
2.1531e-06
-2.4886e-08
2.43597e-08
-2.15353e-06
2.1538e-06
-2.00489e-08
1.97803e-08
-1.05886e-08
9.70839e-09
2.25548e-06
-2.25864e-06
2.26229e-06
-4.85456e-08
4.48942e-08
-2.26599e-06
2.2695e-06
-6.23112e-08
5.87978e-08
-2.27282e-06
2.27571e-06
-6.54212e-08
6.25336e-08
-2.27827e-06
2.28045e-06
-6.318e-08
6.09932e-08
-2.28243e-06
2.28416e-06
-5.97719e-08
5.80333e-08
-2.28579e-06
2.28727e-06
-5.63581e-08
5.48771e-08
-2.28869e-06
2.29002e-06
-5.3113e-08
5.17866e-08
-2.29131e-06
2.29253e-06
-4.99539e-08
4.87357e-08
-2.29372e-06
2.29486e-06
-4.68327e-08
4.56984e-08
-2.29598e-06
2.29705e-06
-4.37378e-08
4.26699e-08
-2.29811e-06
2.29912e-06
-4.06596e-08
3.96431e-08
-2.30014e-06
2.30111e-06
-3.75716e-08
3.6594e-08
-2.30209e-06
2.30304e-06
-3.44283e-08
3.34807e-08
-2.30399e-06
2.30491e-06
-3.11517e-08
3.02346e-08
-2.30582e-06
2.30669e-06
-2.76238e-08
2.67582e-08
-2.30752e-06
2.30827e-06
-2.37093e-08
2.29587e-08
-2.30893e-06
2.30945e-06
-1.93669e-08
1.88492e-08
-8.8798e-09
8.14643e-09
2.41713e-06
-2.41968e-06
2.42287e-06
-4.15878e-08
3.83935e-08
-2.42627e-06
2.4296e-06
-5.54859e-08
5.21535e-08
-2.43284e-06
2.43573e-06
-5.97367e-08
5.68412e-08
-2.43838e-06
2.44068e-06
-5.88198e-08
5.651e-08
-2.4428e-06
2.4447e-06
-5.62787e-08
5.43856e-08
-2.44648e-06
2.44812e-06
-5.33706e-08
5.17345e-08
-2.44969e-06
2.45117e-06
-5.0431e-08
4.89542e-08
-2.45262e-06
2.45398e-06
-4.74845e-08
4.61182e-08
-2.45533e-06
2.45661e-06
-4.45274e-08
4.32453e-08
-2.45788e-06
2.45909e-06
-4.15624e-08
4.03473e-08
-2.4603e-06
2.46146e-06
-3.85855e-08
3.74242e-08
-2.46263e-06
2.46374e-06
-3.55756e-08
3.44585e-08
-2.46486e-06
2.46593e-06
-3.24957e-08
3.14192e-08
-2.46701e-06
2.46804e-06
-2.92868e-08
2.82578e-08
-2.46905e-06
2.47001e-06
-2.58715e-08
2.49164e-08
-2.47093e-06
2.47175e-06
-2.21913e-08
2.13658e-08
-2.4725e-06
2.47311e-06
-1.82938e-08
1.7675e-08
-7.45479e-09
6.84193e-09
2.59041e-06
-2.59257e-06
2.59534e-06
-3.55203e-08
3.27546e-08
-2.59842e-06
2.60152e-06
-4.90435e-08
4.59423e-08
-2.60462e-06
2.60746e-06
-5.40604e-08
5.12116e-08
-2.61014e-06
2.61253e-06
-5.42327e-08
5.18381e-08
-2.61477e-06
2.6168e-06
-5.249e-08
5.04637e-08
-2.61872e-06
2.6205e-06
-5.0085e-08
4.83083e-08
-2.62222e-06
2.62383e-06
-4.74621e-08
4.58505e-08
-2.62541e-06
2.6269e-06
-4.47361e-08
4.32417e-08
-2.62838e-06
2.62978e-06
-4.19471e-08
4.05428e-08
-2.63117e-06
2.6325e-06
-3.91162e-08
3.77846e-08
-2.63383e-06
2.6351e-06
-3.62481e-08
3.49775e-08
-2.63637e-06
2.63758e-06
-3.33297e-08
3.21134e-08
-2.6388e-06
2.63996e-06
-3.0336e-08
2.91741e-08
-2.64111e-06
2.64221e-06
-2.72291e-08
2.61322e-08
-2.64328e-06
2.64429e-06
-2.39683e-08
2.29631e-08
-2.64525e-06
2.64612e-06
-2.05467e-08
1.96774e-08
-2.64692e-06
2.6476e-06
-1.70443e-08
1.63596e-08
-6.26242e-09
5.74764e-09
2.77621e-06
-2.7779e-06
2.78029e-06
-3.0272e-08
2.78835e-08
-2.78306e-06
2.78591e-06
-4.30667e-08
4.0213e-08
-2.78882e-06
2.79157e-06
-4.85031e-08
4.5752e-08
-2.79422e-06
2.79664e-06
-4.95052e-08
4.70808e-08
-2.79895e-06
2.80107e-06
-4.84565e-08
4.63362e-08
-2.80311e-06
2.805e-06
-4.65331e-08
4.46401e-08
-2.80684e-06
2.80857e-06
-4.42346e-08
4.25039e-08
-2.81027e-06
2.81188e-06
-4.17413e-08
4.01314e-08
-2.81347e-06
2.81499e-06
-3.91324e-08
3.76181e-08
-2.81649e-06
2.81792e-06
-3.64479e-08
3.50133e-08
-2.81935e-06
2.82071e-06
-3.3704e-08
3.23391e-08
-2.82207e-06
2.82337e-06
-3.08977e-08
2.95984e-08
-2.82466e-06
2.82589e-06
-2.80177e-08
2.67869e-08
-2.82711e-06
2.82826e-06
-2.50466e-08
2.38964e-08
-2.82938e-06
2.83043e-06
-2.19727e-08
2.09269e-08
-2.83143e-06
2.83234e-06
-1.88193e-08
1.79106e-08
-2.83318e-06
2.83392e-06
-1.56704e-08
1.49283e-08
-5.25924e-09
4.82388e-09
2.97534e-06
-2.97683e-06
2.9789e-06
-2.57395e-08
2.3674e-08
-2.98137e-06
2.98398e-06
-3.75753e-08
3.49633e-08
-2.98671e-06
2.98933e-06
-4.3153e-08
4.05252e-08
-2.99191e-06
2.99432e-06
-4.47423e-08
4.23315e-08
-2.99666e-06
2.99883e-06
-4.42593e-08
4.2087e-08
-3.00094e-06
3.00291e-06
-4.27684e-08
4.07926e-08
-3.00485e-06
3.00667e-06
-4.07841e-08
3.89591e-08
-3.00847e-06
3.01018e-06
-3.85278e-08
3.68214e-08
-3.01186e-06
3.01347e-06
-3.61084e-08
3.44998e-08
-3.01507e-06
3.01659e-06
-3.35833e-08
3.20596e-08
-3.0181e-06
3.01955e-06
-3.09805e-08
2.95345e-08
-3.02099e-06
3.02236e-06
-2.83084e-08
2.69383e-08
-3.02371e-06
3.025e-06
-2.55691e-08
2.42797e-08
-3.02627e-06
3.02747e-06
-2.27628e-08
2.15662e-08
-3.02863e-06
3.02972e-06
-1.98985e-08
1.88144e-08
-3.03076e-06
3.0317e-06
-1.7014e-08
1.60651e-08
-3.0326e-06
3.03339e-06
-1.41853e-08
1.33887e-08
-4.40937e-09
4.03854e-09
3.18877e-06
-3.19004e-06
3.19183e-06
-2.18168e-08
2.00231e-08
-3.19404e-06
3.19643e-06
-3.25523e-08
3.01666e-08
-3.19896e-06
3.20146e-06
-3.80508e-08
3.55548e-08
-3.20396e-06
3.20633e-06
-4.002e-08
3.76476e-08
-3.20866e-06
3.21085e-06
-3.99762e-08
3.7782e-08
-3.213e-06
3.21503e-06
-3.8856e-08
3.68261e-08
-3.21703e-06
3.21892e-06
-3.71612e-08
3.52673e-08
-3.22079e-06
3.22257e-06
-3.51355e-08
3.33547e-08
-3.22434e-06
3.22602e-06
-3.29084e-08
3.12251e-08
-3.22769e-06
3.22929e-06
-3.05519e-08
2.89566e-08
-3.23087e-06
3.23238e-06
-2.81048e-08
2.65931e-08
-3.23388e-06
3.23531e-06
-2.55862e-08
2.41589e-08
-3.23672e-06
3.23806e-06
-2.30104e-08
2.16731e-08
-3.23937e-06
3.24061e-06
-2.03911e-08
1.91551e-08
-3.24181e-06
3.24293e-06
-1.77502e-08
1.66305e-08
-3.244e-06
3.24499e-06
-1.513e-08
1.4142e-08
-3.24593e-06
3.24677e-06
-1.25946e-08
1.17471e-08
-3.73495e-09
3.45708e-09
2.87068e-06
-2.87159e-06
2.87292e-06
-1.84058e-08
1.70779e-08
-2.87459e-06
2.87644e-06
-2.7965e-08
2.61213e-08
-2.87843e-06
2.88043e-06
-3.32084e-08
3.12116e-08
-2.88246e-06
2.88441e-06
-3.53804e-08
3.34227e-08
-2.88636e-06
2.88821e-06
-3.56596e-08
3.38073e-08
-2.89004e-06
2.89178e-06
-3.48472e-08
3.31079e-08
-2.8935e-06
2.89514e-06
-3.34125e-08
3.17755e-08
-2.89676e-06
2.89831e-06
-3.16061e-08
3.00594e-08
-2.89984e-06
2.90131e-06
-2.95702e-08
2.81049e-08
-2.90276e-06
2.90415e-06
-2.7388e-08
2.59989e-08
-2.90553e-06
2.90684e-06
-2.51078e-08
2.37932e-08
-2.90814e-06
2.90938e-06
-2.27582e-08
2.152e-08
-2.9106e-06
2.91176e-06
-2.0363e-08
1.92063e-08
-2.91289e-06
2.91396e-06
-1.79456e-08
1.68784e-08
-2.915e-06
2.91597e-06
-1.55343e-08
1.45661e-08
-2.9169e-06
2.91776e-06
-1.31707e-08
1.23096e-08
-2.91858e-06
2.91933e-06
-1.09065e-08
1.01555e-08
-3.15177e-09
2.87361e-09
3.49938e-06
-3.50031e-06
3.50167e-06
-1.58576e-08
1.44949e-08
-3.50342e-06
3.50537e-06
-2.43981e-08
2.24431e-08
-3.50752e-06
3.5097e-06
-2.93178e-08
2.7136e-08
-3.51195e-06
3.51415e-06
-3.15419e-08
2.93455e-08
-3.51635e-06
3.51847e-06
-3.20105e-08
2.98905e-08
-3.52058e-06
3.5226e-06
-3.14101e-08
2.93932e-08
-3.5246e-06
3.52652e-06
-3.01716e-08
2.82584e-08
-3.52842e-06
3.53023e-06
-2.85409e-08
2.67258e-08
-3.53203e-06
3.53375e-06
-2.66653e-08
2.49429e-08
-3.53547e-06
3.5371e-06
-2.46342e-08
2.30015e-08
-3.53872e-06
3.54026e-06
-2.25024e-08
2.09594e-08
-3.54179e-06
3.54324e-06
-2.03054e-08
1.88549e-08
-3.54467e-06
3.54602e-06
-1.80728e-08
1.67204e-08
-3.54734e-06
3.54859e-06
-1.5833e-08
1.45861e-08
-3.54981e-06
3.55094e-06
-1.36168e-08
1.24831e-08
-3.55203e-06
3.55305e-06
-1.14625e-08
1.04477e-08
-3.55402e-06
3.55492e-06
-9.4125e-09
8.51706e-09
-2.56897e-09
2.29277e-09
4.26568e-06
-4.26661e-06
4.26799e-06
-1.3252e-08
1.18733e-08
-4.26978e-06
4.27182e-06
-2.0631e-08
1.85913e-08
-4.2741e-06
4.27644e-06
-2.50824e-08
2.27342e-08
-4.2789e-06
4.28133e-06
-2.72498e-08
2.48196e-08
-4.2838e-06
4.2862e-06
-2.78465e-08
2.54502e-08
-4.2886e-06
4.29091e-06
-2.74347e-08
2.51212e-08
-4.29322e-06
4.29544e-06
-2.63927e-08
2.41784e-08
-4.29764e-06
4.29975e-06
-2.49517e-08
2.28408e-08
-4.30185e-06
4.30386e-06
-2.3258e-08
2.1251e-08
-4.30585e-06
4.30776e-06
-2.14044e-08
1.9502e-08
-4.30964e-06
4.31144e-06
-1.94509e-08
1.76553e-08
-4.31321e-06
4.3149e-06
-1.7438e-08
1.57532e-08
-4.31656e-06
4.31813e-06
-1.54003e-08
1.38318e-08
-4.31967e-06
4.32111e-06
-1.33691e-08
1.19229e-08
-4.32252e-06
4.32384e-06
-1.13752e-08
1.00566e-08
-4.32512e-06
4.32631e-06
-9.45252e-09
8.26396e-09
-4.32745e-06
4.32851e-06
-7.63414e-09
6.574e-09
-1.99106e-09
1.71816e-09
5.19997e-06
-5.2008e-06
5.20218e-06
-1.06232e-08
9.24288e-09
-5.204e-06
5.2061e-06
-1.67136e-08
1.46122e-08
-5.20848e-06
5.21097e-06
-2.05393e-08
1.80453e-08
-5.21362e-06
5.21627e-06
-2.25163e-08
1.98627e-08
-5.219e-06
5.22168e-06
-2.31541e-08
2.0479e-08
-5.22439e-06
5.22701e-06
-2.2887e-08
2.02631e-08
-5.22965e-06
5.23218e-06
-2.20293e-08
1.94921e-08
-5.23472e-06
5.23715e-06
-2.07863e-08
1.83532e-08
-5.23958e-06
5.2419e-06
-1.92952e-08
1.69755e-08
-5.24421e-06
5.2464e-06
-1.76478e-08
1.54474e-08
-5.24859e-06
5.25066e-06
-1.59056e-08
1.38299e-08
-5.25271e-06
5.25466e-06
-1.41124e-08
1.21667e-08
-5.25658e-06
5.25839e-06
-1.23048e-08
1.04942e-08
-5.26016e-06
5.26183e-06
-1.05144e-08
8.84347e-09
-5.26347e-06
5.265e-06
-8.77036e-09
7.2416e-09
-5.26648e-06
5.26787e-06
-7.10097e-09
5.71399e-09
-5.26921e-06
5.27046e-06
-5.53149e-09
4.28231e-09
-1.41961e-09
1.14867e-09
6.33857e-06
-6.33959e-06
6.34096e-06
-7.99424e-09
6.61578e-09
-6.34281e-06
6.34496e-06
-1.26851e-08
1.05323e-08
-6.34743e-06
6.35006e-06
-1.57253e-08
1.30979e-08
-6.35289e-06
6.35575e-06
-1.73611e-08
1.44915e-08
-6.35874e-06
6.3617e-06
-1.79294e-08
1.49733e-08
-6.36472e-06
6.36766e-06
-1.7742e-08
1.47952e-08
-6.37064e-06
6.37352e-06
-1.70408e-08
1.41596e-08
-6.37642e-06
6.3792e-06
-1.59947e-08
1.32126e-08
-6.38198e-06
6.38464e-06
-1.47229e-08
1.20606e-08
-6.38729e-06
6.38982e-06
-1.33093e-08
1.07796e-08
-6.39233e-06
6.39471e-06
-1.18125e-08
9.42478e-09
-6.39708e-06
6.39931e-06
-1.02756e-08
8.03686e-09
-6.40152e-06
6.4036e-06
-8.7341e-09
6.64918e-09
-6.40565e-06
6.40758e-06
-7.21753e-09
5.28917e-09
-6.40947e-06
6.41124e-06
-5.75113e-09
3.97952e-09
-6.41297e-06
6.41458e-06
-4.35749e-09
2.73974e-09
-6.41616e-06
6.41763e-06
-3.05504e-09
1.5851e-09
-8.4943e-10
5.73854e-10
7.72728e-06
-7.72739e-06
7.72878e-06
-5.3638e-09
3.9703e-09
-7.73066e-06
7.73288e-06
-8.5549e-09
6.33334e-09
-7.73547e-06
7.73824e-06
-1.06547e-08
7.87908e-09
-7.74126e-06
7.74436e-06
-1.17912e-08
8.69082e-09
-7.74762e-06
7.75088e-06
-1.2164e-08
8.90882e-09
-7.75423e-06
7.75752e-06
-1.19733e-08
8.68034e-09
-7.76087e-06
7.76412e-06
-1.13856e-08
8.13189e-09
-7.7674e-06
7.77057e-06
-1.05245e-08
7.36067e-09
-7.77373e-06
7.77677e-06
-9.48245e-09
6.44133e-09
-7.77981e-06
7.7827e-06
-8.32709e-09
5.43008e-09
-7.78558e-06
7.78832e-06
-7.10824e-09
4.36924e-09
-7.79103e-06
7.7936e-06
-5.86347e-09
3.29136e-09
-7.79614e-06
7.79854e-06
-4.62329e-09
2.22287e-09
-7.8009e-06
7.80312e-06
-3.41253e-09
1.18505e-09
-7.80531e-06
7.80736e-06
-2.25138e-09
1.95061e-10
-7.80938e-06
7.81127e-06
-1.15658e-09
-7.33442e-10
-7.81311e-06
7.81484e-06
-1.40804e-10
-1.59058e-09
-2.62078e-10
-3.51784e-11
9.4193e-06
-9.42024e-06
9.42171e-06
-2.68537e-09
1.22203e-09
-9.42369e-06
9.42606e-06
-4.26855e-09
1.90375e-09
-9.42883e-06
9.43183e-06
-5.27596e-09
2.27385e-09
-9.43512e-06
9.43853e-06
-5.75726e-09
2.35118e-09
-9.44213e-06
9.44576e-06
-5.80541e-09
2.18109e-09
-9.44951e-06
9.45321e-06
-5.52213e-09
1.81685e-09
-9.457e-06
9.46069e-06
-4.99767e-09
1.3081e-09
-9.46442e-06
9.46802e-06
-4.30373e-09
6.96677e-10
-9.47164e-06
9.47512e-06
-3.497e-09
1.72627e-11
-9.47859e-06
9.48192e-06
-2.62138e-09
-7.01917e-10
-9.48522e-06
9.48837e-06
-1.71084e-09
-1.43776e-09
-9.49149e-06
9.49445e-06
-7.92221e-10
-2.171e-09
-9.49738e-06
9.50015e-06
1.12666e-10
-2.88577e-09
-9.50288e-06
9.50546e-06
9.86217e-10
-3.56908e-09
-9.508e-06
9.5104e-06
1.81426e-09
-4.2102e-09
-9.51275e-06
9.51496e-06
2.58581e-09
-4.80115e-09
-9.51714e-06
9.51918e-06
3.29318e-09
-5.33661e-09
3.89835e-10
-7.53957e-10
1.14824e-05
-1.14824e-05
1.14841e-05
1.74195e-10
-1.84414e-09
-1.14864e-05
1.14891e-05
3.60313e-10
-3.06828e-09
-1.14922e-05
1.14957e-05
6.11152e-10
-4.06213e-09
-1.14995e-05
1.15034e-05
9.33958e-10
-4.86296e-09
-1.15076e-05
1.15118e-05
1.32534e-09
-5.51741e-09
-1.15161e-05
1.15204e-05
1.77641e-09
-6.06983e-09
-1.15248e-05
1.15291e-05
2.27596e-09
-6.55545e-09
-1.15334e-05
1.15376e-05
2.81127e-09
-6.99695e-09
-1.15418e-05
1.15458e-05
3.36959e-09
-7.4084e-09
-1.15499e-05
1.15537e-05
3.93867e-09
-7.79702e-09
-1.15575e-05
1.15612e-05
4.50658e-09
-8.16453e-09
-1.15648e-05
1.15683e-05
5.06187e-09
-8.50888e-09
-1.15717e-05
1.15749e-05
5.59469e-09
-8.82734e-09
-1.15781e-05
1.15811e-05
6.09653e-09
-9.11651e-09
-1.15841e-05
1.15869e-05
6.55986e-09
-9.37237e-09
-1.15897e-05
1.15923e-05
6.97928e-09
-9.59227e-09
-1.15949e-05
1.15973e-05
7.35142e-09
-9.77479e-09
1.03832e-09
-1.34566e-09
8.40631e-06
-8.40613e-06
8.40746e-06
3.55197e-09
-4.87989e-09
-8.40925e-06
8.41138e-06
5.82648e-09
-7.95438e-09
-8.41386e-06
8.41653e-06
7.55872e-09
-1.02295e-08
-8.41944e-06
8.42243e-06
8.82183e-09
-1.18152e-08
-8.42559e-06
8.42873e-06
9.71889e-09
-1.2866e-08
-8.43197e-06
8.43515e-06
1.03524e-08
-1.3534e-08
-8.43838e-06
8.44152e-06
1.08068e-08
-1.39439e-08
-8.44468e-06
8.44772e-06
1.11414e-08
-1.41832e-08
-8.45076e-06
8.45367e-06
1.13973e-08
-1.43129e-08
-8.45658e-06
8.45935e-06
1.16009e-08
-1.43729e-08
-8.4621e-06
8.46472e-06
1.1767e-08
-1.43868e-08
-8.46731e-06
8.46977e-06
1.19023e-08
-1.43669e-08
-8.47221e-06
8.47452e-06
1.20105e-08
-1.43209e-08
-8.4768e-06
8.47896e-06
1.20926e-08
-1.42527e-08
-8.48109e-06
8.4831e-06
1.21477e-08
-1.41629e-08
-8.48509e-06
8.48696e-06
1.21753e-08
-1.40522e-08
-8.48881e-06
8.49056e-06
1.21756e-08
-1.39217e-08
1.64237e-09
-1.97561e-09
7.31733e-06
-7.31818e-06
7.31955e-06
6.31261e-09
-7.68751e-09
-7.32139e-06
7.32355e-06
1.02294e-08
-1.23855e-08
-7.32603e-06
7.32866e-06
1.30515e-08
-1.56863e-08
-7.3315e-06
7.33437e-06
1.49404e-08
-1.78153e-08
-7.33736e-06
7.3403e-06
1.61154e-08
-1.90645e-08
-7.34331e-06
7.34623e-06
1.67881e-08
-1.97077e-08
-7.34917e-06
7.35199e-06
1.71276e-08
-1.99579e-08
-7.35482e-06
7.35753e-06
1.72514e-08
-1.99599e-08
-7.36022e-06
7.36279e-06
1.72405e-08
-1.98111e-08
-7.36534e-06
7.36777e-06
1.7147e-08
-1.95738e-08
-7.37017e-06
7.37245e-06
1.70026e-08
-1.92847e-08
-7.37471e-06
7.37684e-06
1.68241e-08
-1.89641e-08
-7.37896e-06
7.38096e-06
1.66226e-08
-1.86251e-08
-7.38293e-06
7.3848e-06
1.6404e-08
-1.82747e-08
-7.38665e-06
7.38839e-06
1.61701e-08
-1.79153e-08
-7.39011e-06
7.39173e-06
1.59226e-08
-1.75491e-08
-7.39334e-06
7.39485e-06
1.5663e-08
-1.71778e-08
2.30669e-09
-2.68663e-09
6.37038e-06
-6.37131e-06
6.37282e-06
9.22247e-09
-1.07364e-08
-6.37482e-06
6.37712e-06
1.47586e-08
-1.70589e-08
-6.37972e-06
6.38243e-06
1.85372e-08
-2.12465e-08
-6.38529e-06
6.38814e-06
2.08744e-08
-2.37271e-08
-6.39106e-06
6.39389e-06
2.21555e-08
-2.499e-08
-6.39674e-06
6.39947e-06
2.27293e-08
-2.5462e-08
-6.40219e-06
6.40478e-06
2.28577e-08
-2.5452e-08
-6.40735e-06
6.40979e-06
2.27136e-08
-2.51574e-08
-6.41221e-06
6.4145e-06
2.241e-08
-2.4703e-08
-6.41677e-06
6.41891e-06
2.20173e-08
-2.41643e-08
-6.42103e-06
6.42304e-06
2.15763e-08
-2.35841e-08
-6.42502e-06
6.42689e-06
2.11091e-08
-2.29847e-08
-6.42874e-06
6.43049e-06
2.06297e-08
-2.23805e-08
-6.43221e-06
6.43385e-06
2.01461e-08
-2.17792e-08
-6.43545e-06
6.43698e-06
1.96606e-08
-2.11831e-08
-6.43848e-06
6.43989e-06
1.91757e-08
-2.05943e-08
-6.44129e-06
6.44261e-06
1.8693e-08
-2.00145e-08
3.0703e-09
-3.51442e-09
5.54544e-06
-5.54752e-06
5.54925e-06
1.24642e-08
-1.41978e-08
-5.5515e-06
5.55402e-06
1.96322e-08
-2.2154e-08
-5.5568e-06
5.55964e-06
2.42138e-08
-2.70548e-08
-5.56258e-06
5.56544e-06
2.67889e-08
-2.96571e-08
-5.56832e-06
5.57107e-06
2.79785e-08
-3.07257e-08
-5.57378e-06
5.57635e-06
2.83017e-08
-3.08727e-08
-5.57888e-06
5.58127e-06
2.81179e-08
-3.05038e-08
-5.58361e-06
5.58582e-06
2.76481e-08
-2.98588e-08
-5.58799e-06
5.59004e-06
2.70265e-08
-2.90768e-08
-5.59205e-06
5.59396e-06
2.63312e-08
-2.82355e-08
-5.59583e-06
5.5976e-06
2.56048e-08
-2.73755e-08
-5.59934e-06
5.60099e-06
2.48687e-08
-2.65161e-08
-5.60261e-06
5.60414e-06
2.41366e-08
-2.56697e-08
-5.60565e-06
5.60707e-06
2.34157e-08
-2.48425e-08
-5.60848e-06
5.6098e-06
2.27076e-08
-2.40354e-08
-5.61111e-06
5.61235e-06
2.20142e-08
-2.32498e-08
-5.61356e-06
5.61471e-06
2.13366e-08
-2.24864e-08
3.96331e-09
-4.47726e-09
4.82851e-06
-4.82979e-06
4.83183e-06
1.62033e-08
-1.8237e-08
-4.83438e-06
4.83717e-06
2.4992e-08
-2.77781e-08
-4.84017e-06
4.84315e-06
3.01771e-08
-3.31669e-08
-4.84617e-06
4.84905e-06
3.27381e-08
-3.56177e-08
-4.85188e-06
4.85453e-06
3.36198e-08
-3.62701e-08
-4.85711e-06
4.85951e-06
3.35389e-08
-3.59408e-08
-4.86184e-06
4.86401e-06
3.29491e-08
-3.51251e-08
-4.86613e-06
4.86811e-06
3.21055e-08
-3.40875e-08
-4.87005e-06
4.87186e-06
3.11483e-08
-3.29648e-08
-4.87364e-06
4.87531e-06
3.01516e-08
-3.18247e-08
-4.87695e-06
4.8785e-06
2.91518e-08
-3.0698e-08
-4.88001e-06
4.88144e-06
2.81649e-08
-2.95966e-08
-4.88285e-06
4.88417e-06
2.72012e-08
-2.85281e-08
-4.88548e-06
4.88671e-06
2.62655e-08
-2.74959e-08
-4.88792e-06
4.88906e-06
2.53578e-08
-2.64992e-08
-4.89018e-06
4.89123e-06
2.44788e-08
-2.55378e-08
-4.89228e-06
4.89326e-06
2.36288e-08
-2.46117e-08
4.98265e-09
-5.53036e-09
4.20355e-06
-4.20412e-06
4.20654e-06
2.06109e-08
-2.30313e-08
-4.20945e-06
4.2125e-06
3.09076e-08
-3.39615e-08
-4.21571e-06
4.21882e-06
3.6444e-08
-3.95616e-08
-4.22189e-06
4.22474e-06
3.86949e-08
-4.1544e-08
-4.22747e-06
4.22998e-06
3.90429e-08
-4.15534e-08
-4.23238e-06
4.23457e-06
3.8411e-08
-4.06077e-08
-4.23668e-06
4.23862e-06
3.7335e-08
-3.92753e-08
-4.24049e-06
4.24222e-06
3.60827e-08
-3.78196e-08
-4.24391e-06
4.24548e-06
3.47824e-08
-3.63557e-08
-4.24701e-06
4.24845e-06
3.34918e-08
-3.49288e-08
-4.24985e-06
4.25117e-06
3.22336e-08
-3.35525e-08
-4.25246e-06
4.25367e-06
3.10143e-08
-3.22281e-08
-4.25486e-06
4.25598e-06
2.98387e-08
-3.0957e-08
-4.25707e-06
4.2581e-06
2.87083e-08
-2.97393e-08
-4.25911e-06
4.26006e-06
2.76213e-08
-2.85723e-08
-4.26099e-06
4.26187e-06
2.65767e-08
-2.74545e-08
-4.26273e-06
4.26354e-06
2.55737e-08
-2.63842e-08
6.0175e-09
-6.45062e-09
3.65843e-06
-3.66148e-06
3.66437e-06
2.58675e-08
-2.87583e-08
-3.6676e-06
3.67089e-06
3.73638e-08
-4.06483e-08
-3.67426e-06
3.67744e-06
4.29483e-08
-4.61323e-08
-3.68048e-06
3.68323e-06
4.45529e-08
-4.73025e-08
-3.68581e-06
3.68812e-06
4.4145e-08
-4.64602e-08
-3.69029e-06
3.69224e-06
4.28353e-08
-4.47901e-08
-3.69409e-06
3.69577e-06
4.12182e-08
-4.2901e-08
-3.69738e-06
3.69885e-06
3.95441e-08
-4.1023e-08
-3.70028e-06
3.7016e-06
3.79083e-08
-3.92289e-08
-3.70288e-06
3.70407e-06
3.63397e-08
-3.75307e-08
-3.70522e-06
3.7063e-06
3.48414e-08
-3.59211e-08
-3.70735e-06
3.70833e-06
3.34083e-08
-3.43892e-08
-3.70928e-06
3.71017e-06
3.20389e-08
-3.29306e-08
-3.71104e-06
3.71185e-06
3.07317e-08
-3.15423e-08
-3.71264e-06
3.71337e-06
2.94829e-08
-3.022e-08
-3.71409e-06
3.71476e-06
2.82908e-08
-2.89618e-08
-3.71541e-06
3.71602e-06
2.71526e-08
-2.77642e-08
6.72334e-09
-6.79343e-09
3.18507e-06
-3.18781e-06
3.1912e-06
3.21294e-08
-3.55226e-08
-3.19468e-06
3.19814e-06
4.42646e-08
-4.77341e-08
-3.20164e-06
3.20484e-06
4.95496e-08
-5.27491e-08
-3.2078e-06
3.21042e-06
5.01758e-08
-5.27955e-08
-3.21282e-06
3.21492e-06
4.88256e-08
-5.09261e-08
-3.21684e-06
3.21853e-06
4.67481e-08
-4.84395e-08
-3.22009e-06
3.22148e-06
4.45585e-08
-4.59509e-08
-3.22278e-06
3.22395e-06
4.24585e-08
-4.36313e-08
-3.22506e-06
3.22606e-06
4.04932e-08
-4.14976e-08
-3.22701e-06
3.22788e-06
3.86554e-08
-3.95235e-08
-3.2287e-06
3.22946e-06
3.69264e-08
-3.76788e-08
-3.23017e-06
3.23082e-06
3.5289e-08
-3.59402e-08
-3.23144e-06
3.232e-06
3.37359e-08
-3.42969e-08
-3.23253e-06
3.233e-06
3.22621e-08
-3.27421e-08
-3.23345e-06
3.23386e-06
3.08629e-08
-3.12702e-08
-3.23424e-06
3.23458e-06
2.95362e-08
-2.98795e-08
-3.23491e-06
3.23519e-06
2.82778e-08
-2.85662e-08
6.4349e-09
-4.71179e-09
2.77128e-06
-2.77614e-06
2.77999e-06
3.93824e-08
-4.32356e-08
-2.78375e-06
2.78758e-06
5.15949e-08
-5.54263e-08
-2.79135e-06
2.79465e-06
5.62119e-08
-5.95216e-08
-2.7976e-06
2.80009e-06
5.5543e-08
-5.80351e-08
-2.80225e-06
2.80402e-06
5.30436e-08
-5.48147e-08
-2.80552e-06
2.80672e-06
5.00636e-08
-5.127e-08
-2.80772e-06
2.80852e-06
4.72149e-08
-4.80073e-08
-2.80916e-06
2.80964e-06
4.46313e-08
-4.512e-08
-2.81002e-06
2.81027e-06
4.22963e-08
-4.2553e-08
-2.81043e-06
2.8105e-06
4.01607e-08
-4.02299e-08
-2.81049e-06
2.81039e-06
3.81798e-08
-3.80905e-08
-2.81023e-06
2.81e-06
3.63227e-08
-3.60942e-08
-2.8097e-06
2.80934e-06
3.45743e-08
-3.4221e-08
-2.80892e-06
2.80846e-06
3.29249e-08
-3.24592e-08
-2.80793e-06
2.80736e-06
3.13684e-08
-3.0801e-08
-2.80673e-06
2.80607e-06
2.99031e-08
-2.92455e-08
-2.80536e-06
2.80463e-06
2.85262e-08
-2.77932e-08
9.69965e-10
8.60732e-10
2.41117e-06
-2.41745e-06
2.42317e-06
4.79373e-08
-5.36644e-08
-2.42858e-06
2.4336e-06
5.99643e-08
-6.49819e-08
-2.43778e-06
2.44084e-06
6.31198e-08
-6.61799e-08
-2.44299e-06
2.44417e-06
6.04522e-08
-6.16397e-08
-2.44451e-06
2.44406e-06
5.61716e-08
-5.57232e-08
-2.4429e-06
2.44117e-06
5.17952e-08
-5.00626e-08
-2.43887e-06
2.43618e-06
4.79142e-08
-4.52235e-08
-2.43305e-06
2.42965e-06
4.45635e-08
-4.11666e-08
-2.42589e-06
2.42197e-06
4.16335e-08
-3.77108e-08
-2.41775e-06
2.41343e-06
3.90112e-08
-3.46965e-08
-2.40887e-06
2.40427e-06
3.66154e-08
-3.2014e-08
-2.39946e-06
2.39465e-06
3.4396e-08
-2.95925e-08
-2.38967e-06
2.38474e-06
3.23275e-08
-2.73925e-08
-2.37965e-06
2.37465e-06
3.03952e-08
-2.5388e-08
-2.36952e-06
2.36448e-06
2.85906e-08
-2.35597e-08
-2.35935e-06
2.35434e-06
2.69126e-08
-2.18982e-08
-2.34924e-06
2.34428e-06
2.53639e-08
-2.04048e-08
2.95589e-08
2.07144e-06
-2.14045e-06
2.13881e-06
6.08871e-08
-5.92482e-08
-2.13452e-06
2.12668e-06
7.04126e-08
-6.25699e-08
-2.11528e-06
2.10086e-06
6.67899e-08
-5.23631e-08
-2.08327e-06
2.06391e-06
5.80457e-08
-3.86818e-08
-2.04288e-06
2.02179e-06
4.88569e-08
-2.7772e-08
-2.00033e-06
1.97977e-06
4.10396e-08
-2.04831e-08
-1.95951e-06
1.94053e-06
3.49952e-08
-1.60211e-08
-1.9221e-06
1.90499e-06
3.04175e-08
-1.3312e-08
-1.88845e-06
1.87312e-06
2.68837e-08
-1.1558e-08
-1.8583e-06
1.84454e-06
2.40568e-08
-1.02982e-08
-1.8312e-06
1.81878e-06
2.17107e-08
-9.29904e-09
-1.80672e-06
1.79546e-06
1.97054e-08
-8.44766e-09
-1.78448e-06
1.77422e-06
1.79583e-08
-7.69677e-09
-1.7642e-06
1.75481e-06
1.64173e-08
-7.02601e-09
-1.74562e-06
1.73699e-06
1.50497e-08
-6.42388e-09
-1.72854e-06
1.72059e-06
1.3837e-08
-5.88914e-09
-1.71279e-06
1.70545e-06
1.2783e-08
-5.44657e-09
1.35684e-09
-4.97276e-09
3.60112e-09
-5.03364e-09
9.83734e-09
-4.83164e-09
-1.47833e-08
1.92259e-08
-4.46758e-09
-2.2849e-08
2.54853e-08
-2.66141e-09
-2.71205e-08
2.77379e-08
-6.41756e-10
-2.74436e-08
2.62802e-08
1.14009e-09
-2.44062e-08
2.18685e-08
2.51527e-09
-1.88229e-08
1.5284e-08
3.5173e-09
-1.13827e-08
7.10835e-09
4.25355e-09
-2.57421e-09
-2.25653e-09
4.81096e-09
7.29422e-09
-1.25993e-08
5.28749e-09
1.80819e-08
-2.3798e-08
5.70089e-09
2.96632e-08
-3.57529e-08
6.07674e-09
4.19888e-08
-4.84211e-08
6.42112e-09
5.5002e-08
-6.17835e-08
6.77198e-09
6.86804e-08
-7.57838e-08
7.09523e-09
8.30093e-08
-9.03981e-08
7.38176e-09
9.79162e-08
-1.05584e-07
7.66167e-09
1.13372e-07
-1.21323e-07
7.94606e-09
1.29332e-07
-1.37513e-07
8.1755e-09
1.45739e-07
-1.5413e-07
8.3861e-09
1.62578e-07
-1.71117e-07
8.53477e-09
1.79732e-07
-1.88422e-07
8.68609e-09
1.97181e-07
-2.05998e-07
8.81323e-09
2.14877e-07
-2.23843e-07
8.96283e-09
2.32778e-07
-2.41832e-07
9.05221e-09
2.50844e-07
-2.59969e-07
9.12336e-09
2.69038e-07
-2.78221e-07
9.18178e-09
2.87335e-07
-2.9656e-07
9.22413e-09
3.05707e-07
-3.14964e-07
9.25764e-09
3.24137e-07
-3.33415e-07
9.27895e-09
3.42605e-07
-3.51899e-07
9.29476e-09
3.61096e-07
-3.70401e-07
9.30465e-09
3.79606e-07
-3.88918e-07
9.31241e-09
3.98122e-07
-4.07353e-07
9.2353e-09
4.16633e-07
-4.25857e-07
9.2346e-09
4.3514e-07
-4.44353e-07
9.23132e-09
4.53544e-07
-4.62835e-07
9.31212e-09
4.72025e-07
-4.81312e-07
9.3108e-09
4.90496e-07
-4.9968e-07
9.21122e-09
5.08952e-07
-5.18131e-07
9.20813e-09
5.27299e-07
-5.36571e-07
9.30246e-09
5.45735e-07
-5.54892e-07
9.1909e-09
5.6415e-07
-5.73293e-07
9.18279e-09
5.82429e-07
-5.91652e-07
9.27182e-09
6.00764e-07
-6.09834e-07
9.13234e-09
6.19024e-07
-6.28043e-07
9.09519e-09
6.37068e-07
-6.46022e-07
9.04023e-09
6.55118e-07
-6.64035e-07
8.99853e-09
6.72957e-07
-6.81847e-07
8.94955e-09
6.90858e-07
-6.99766e-07
8.91648e-09
7.08633e-07
-7.17609e-07
8.91632e-09
7.26668e-07
-7.35781e-07
8.9987e-09
7.44806e-07
-7.5405e-07
9.12491e-09
7.63286e-07
-7.72694e-07
9.36239e-09
7.82285e-07
-7.9164e-07
9.43366e-09
8.00852e-07
-8.09116e-07
8.45387e-09
8.16163e-07
-8.2329e-07
7.34136e-09
8.32019e-07
-8.40621e-07
8.78678e-09
8.48793e-07
-8.5692e-07
8.31318e-09
8.65311e-07
-8.74278e-07
9.22697e-09
8.84702e-07
-8.94833e-07
1.04883e-08
9.04199e-07
-9.12829e-07
9.00733e-09
9.21373e-07
-9.28678e-07
7.49607e-09
9.36222e-07
-9.47098e-07
1.06766e-08
9.65009e-07
-9.77258e-07
1.16883e-08
9.78195e-07
-9.83547e-07
4.9764e-09
9.88603e-07
-9.85301e-07
-3.12751e-09
9.89444e-07
-1.00464e-06
1.57266e-08
1.01788e-06
-1.02912e-06
1.17913e-08
1.04331e-06
-1.06095e-06
1.78093e-08
1.06747e-06
-1.06248e-06
-5.39566e-09
1.07265e-06
-1.08575e-06
1.23105e-08
1.08754e-06
-1.09104e-06
2.53782e-09
1.09618e-06
-1.10622e-06
9.14747e-09
1.11451e-06
-1.11974e-06
4.83146e-09
1.11542e-06
-1.12166e-06
6.44709e-09
1.13981e-06
-1.14992e-06
1.05009e-08
1.15616e-06
-1.16636e-06
1.04033e-08
1.18527e-06
-1.19366e-06
8.37426e-09
1.1892e-06
-1.1906e-06
1.39712e-09
1.19426e-06
-1.19857e-06
4.42431e-09
1.20352e-06
-1.20838e-06
5.05526e-09
1.21333e-06
-1.21776e-06
4.6407e-09
1.22244e-06
-1.22678e-06
4.56096e-09
1.23087e-06
-1.23482e-06
4.17573e-09