/*--------------------------------*- C++ -*----------------------------------*\
  =========                 |
  \\      /  F ield         | OpenFOAM: The Open Source CFD Toolbox
   \\    /   O peration     | Website:  https://openfoam.org
    \\  /    A nd           | Version:  7
     \\/     M anipulation  |
\*---------------------------------------------------------------------------*/
FoamFile
{
    version     2.0;
    format      ascii;
    class       volVectorField;
    location    "400";
    object      U;
}
// * * * * * * * * * * * * * * * * * * * * * * * * * * * * * * * * * * * * * //

dimensions      [0 1 -1 0 0 0 0];

internalField   nonuniform List<vector> 
48900
(
(10.1555 0.422381 0)
(8.81651 -0.790495 0)
(7.84619 -0.155327 0)
(7.1256 -0.00358854 0)
(6.67552 0.0204921 0)
(6.39128 0.0216642 0)
(6.18349 0.0194611 0)
(6.01164 0.0167564 0)
(5.86288 0.0141187 0)
(5.73374 0.0118148 0)
(5.6226 0.00991711 0)
(5.52752 0.00839717 0)
(5.44671 0.00711995 0)
(5.37858 0.00600333 0)
(5.32194 0.00494933 0)
(5.27629 0.00381918 0)
(5.24254 0.00237965 0)
(5.22446 0.00221228 0)
(9.99732 0.0258355 0)
(10.133 0.0871104 0)
(10.1789 0.0999057 0)
(10.1356 0.105437 0)
(10.0076 0.0953351 0)
(9.83159 0.0845122 0)
(9.6393 0.0756097 0)
(9.44921 0.068154 0)
(9.26982 0.0615889 0)
(9.10409 0.055694 0)
(8.95251 0.0503778 0)
(8.81481 0.0455785 0)
(8.69037 0.0411714 0)
(8.5785 0.037032 0)
(8.47869 0.0329685 0)
(8.39069 0.0286449 0)
(8.31484 0.0232984 0)
(8.25269 0.0142797 0)
(10.0006 0.020771 0)
(10.0609 0.0953173 0)
(10.1157 0.115623 0)
(10.1549 0.115776 0)
(10.1713 0.108934 0)
(10.1704 0.102933 0)
(10.1576 0.0984581 0)
(10.1355 0.0947657 0)
(10.1055 0.0911615 0)
(10.0684 0.0873742 0)
(10.0256 0.0833638 0)
(9.97816 0.0791472 0)
(9.92761 0.0747207 0)
(9.87531 0.0700181 0)
(9.82267 0.0648663 0)
(9.7711 0.0588733 0)
(9.72205 0.0511194 0)
(9.67647 0.0392784 0)
(10.0006 0.0184378 0)
(10.0439 0.0828183 0)
(10.0871 0.102596 0)
(10.1229 0.107374 0)
(10.1467 0.104265 0)
(10.1619 0.100649 0)
(10.1722 0.0977468 0)
(10.1793 0.0953269 0)
(10.1843 0.092969 0)
(10.1872 0.0904733 0)
(10.1883 0.0877767 0)
(10.1879 0.0848475 0)
(10.1861 0.0816243 0)
(10.1831 0.0779817 0)
(10.1793 0.0736811 0)
(10.1749 0.0682717 0)
(10.17 0.0609006 0)
(10.1638 0.0502095 0)
(10.0005 0.0152674 0)
(10.0336 0.07139 0)
(10.0714 0.0926224 0)
(10.1033 0.0993939 0)
(10.1266 0.0985411 0)
(10.1435 0.0963116 0)
(10.157 0.0941931 0)
(10.1684 0.092261 0)
(10.1785 0.0902776 0)
(10.1875 0.0881066 0)
(10.1957 0.0856963 0)
(10.2032 0.0830107 0)
(10.2101 0.0799813 0)
(10.2167 0.0764748 0)
(10.223 0.0722538 0)
(10.229 0.0669167 0)
(10.2346 0.0598462 0)
(10.2387 0.0504353 0)
(10.0005 0.0127998 0)
(10.0258 0.0613669 0)
(10.0589 0.0829445 0)
(10.088 0.0913255 0)
(10.1106 0.0923453 0)
(10.1279 0.0912727 0)
(10.1421 0.0897759 0)
(10.1546 0.0881805 0)
(10.166 0.0864129 0)
(10.1765 0.0843973 0)
(10.1864 0.0820959 0)
(10.1957 0.079472 0)
(10.2046 0.0764567 0)
(10.2132 0.0729226 0)
(10.2216 0.0686596 0)
(10.2296 0.0633543 0)
(10.2369 0.0566279 0)
(10.2427 0.0483101 0)
(10.0004 0.0107378 0)
(10.0198 0.0525151 0)
(10.0482 0.0736989 0)
(10.0747 0.0831944 0)
(10.0964 0.0857631 0)
(10.1137 0.0857371 0)
(10.1284 0.084825 0)
(10.1413 0.08354 0)
(10.1531 0.0819518 0)
(10.1642 0.0800478 0)
(10.1746 0.0778106 0)
(10.1845 0.0752095 0)
(10.194 0.0721814 0)
(10.2032 0.0686151 0)
(10.212 0.0643426 0)
(10.2203 0.0591469 0)
(10.2278 0.0528356 0)
(10.2339 0.0454536 0)
(10.0004 0.00901754 0)
(10.0153 0.0448267 0)
(10.0392 0.0650211 0)
(10.0628 0.0751095 0)
(10.0833 0.0788651 0)
(10.1004 0.0797552 0)
(10.1152 0.0794032 0)
(10.1283 0.0784318 0)
(10.1404 0.0770234 0)
(10.1517 0.0752259 0)
(10.1623 0.0730477 0)
(10.1725 0.0704702 0)
(10.1822 0.0674432 0)
(10.1914 0.0638793 0)
(10.2003 0.0596579 0)
(10.2085 0.0546496 0)
(10.2158 0.0487886 0)
(10.2219 0.0422086 0)
(10.0003 0.00757624 0)
(10.0119 0.0381832 0)
(10.0319 0.0569999 0)
(10.0526 0.0672375 0)
(10.0716 0.0717996 0)
(10.088 0.0734218 0)
(10.1026 0.0735681 0)
(10.1157 0.0728998 0)
(10.1278 0.0716734 0)
(10.1392 0.0699874 0)
(10.1499 0.0678764 0)
(10.1601 0.0653383 0)
(10.1698 0.0623405 0)
(10.179 0.0588239 0)
(10.1877 0.0547142 0)
(10.1957 0.0499521 0)
(10.2028 0.0445491 0)
(10.2088 0.0386628 0)
(10.0003 0.00636142 0)
(10.0093 0.0324447 0)
(10.026 0.0496431 0)
(10.0441 0.0596847 0)
(10.0613 0.0647187 0)
(10.0768 0.0668695 0)
(10.0909 0.0674166 0)
(10.1038 0.0670127 0)
(10.1157 0.0659558 0)
(10.127 0.0643803 0)
(10.1376 0.0623444 0)
(10.1477 0.0598638 0)
(10.1572 0.056926 0)
(10.1663 0.0535 0)
(10.1747 0.0495525 0)
(10.1825 0.0450745 0)
(10.1894 0.0401197 0)
(10.1953 0.0348392 0)
(10.0002 0.00533589 0)
(10.0074 0.0274735 0)
(10.0213 0.0429192 0)
(10.037 0.0524945 0)
(10.0525 0.0577203 0)
(10.067 0.0602111 0)
(10.0804 0.0610526 0)
(10.0928 0.0608588 0)
(10.1044 0.0599452 0)
(10.1154 0.0584703 0)
(10.1257 0.056512 0)
(10.1356 0.0541033 0)
(10.1449 0.0512515 0)
(10.1537 0.0479512 0)
(10.1618 0.0442017 0)
(10.1693 0.040027 0)
(10.176 0.0354998 0)
(10.1818 0.0307529 0)
(10.0002 0.00453666 0)
(10.006 0.0233181 0)
(10.0176 0.0370287 0)
(10.0314 0.0459556 0)
(10.0454 0.0511393 0)
(10.0588 0.0537941 0)
(10.0715 0.0548205 0)
(10.0833 0.0547749 0)
(10.0945 0.0539712 0)
(10.1051 0.0525811 0)
(10.1152 0.0506973 0)
(10.1247 0.048368 0)
(10.1337 0.0456179 0)
(10.1421 0.0424624 0)
(10.1499 0.0389232 0)
(10.1571 0.0350436 0)
(10.1635 0.0309006 0)
(10.1692 0.0266073 0)
(10.0001 0.00379891 0)
(10.005 0.0199303 0)
(10.015 0.0320501 0)
(10.0271 0.0402565 0)
(10.0398 0.0452425 0)
(10.0523 0.0479246 0)
(10.0643 0.0490425 0)
(10.0756 0.0490892 0)
(10.0864 0.0483645 0)
(10.0966 0.0470439 0)
(10.1063 0.0452297 0)
(10.1154 0.0429821 0)
(10.1241 0.0403391 0)
(10.1322 0.0373311 0)
(10.1397 0.0339944 0)
(10.1466 0.0303815 0)
(10.1528 0.0265674 0)
(10.1583 0.0226475 0)
(10.0001 0.00306558 0)
(10.0041 0.0164892 0)
(10.0125 0.0268215 0)
(10.023 0.0340793 0)
(10.0345 0.0386728 0)
(10.0459 0.0412478 0)
(10.0571 0.0423774 0)
(10.0678 0.0424755 0)
(10.0781 0.0418138 0)
(10.0878 0.0405632 0)
(10.0971 0.0388314 0)
(10.1058 0.0366877 0)
(10.1141 0.0341815 0)
(10.1218 0.0313557 0)
(10.1289 0.0282563 0)
(10.1355 0.0249399 0)
(10.1414 0.0214754 0)
(10.1467 0.017941 0)
(10.0001 0.00233924 0)
(10.0034 0.0130287 0)
(10.0103 0.0214051 0)
(10.0194 0.0274792 0)
(10.0295 0.0314548 0)
(10.0399 0.0337494 0)
(10.0502 0.034776 0)
(10.0602 0.0348593 0)
(10.0699 0.0342295 0)
(10.0791 0.0330427 0)
(10.0879 0.0314044 0)
(10.0962 0.0293886 0)
(10.104 0.0270519 0)
(10.1113 0.0244444 0)
(10.1181 0.0216166 0)
(10.1243 0.0186234 0)
(10.13 0.0155254 0)
(10.1351 0.0123848 0)
(10.0001 0.00162004 0)
(10.0027 0.00957293 0)
(10.0085 0.0158477 0)
(10.0162 0.0205054 0)
(10.0251 0.023618 0)
(10.0344 0.0254262 0)
(10.0438 0.0262007 0)
(10.0531 0.0261741 0)
(10.0622 0.0255246 0)
(10.0709 0.0243823 0)
(10.0791 0.0228416 0)
(10.087 0.0209735 0)
(10.0943 0.0188356 0)
(10.1012 0.0164787 0)
(10.1076 0.0139518 0)
(10.1135 0.0113043 0)
(10.1189 0.00858594 0)
(10.1238 0.00584453 0)
(10.0001 0.000897703 0)
(10.0022 0.00610704 0)
(10.0071 0.0101451 0)
(10.0137 0.0131622 0)
(10.0214 0.0151608 0)
(10.0298 0.0162572 0)
(10.0384 0.0166045 0)
(10.047 0.0163471 0)
(10.0554 0.0156049 0)
(10.0635 0.0144717 0)
(10.0713 0.0130209 0)
(10.0786 0.0113112 0)
(10.0856 0.00939276 0)
(10.0921 0.00731002 0)
(10.0981 0.005105 0)
(10.1037 0.00281785 0)
(10.1089 0.000486839 0)
(10.1136 -0.00185308 0)
(10.0001 0.000141889 0)
(10.0019 0.00254673 0)
(10.0061 0.00418771 0)
(10.0119 0.00533692 0)
(10.0189 0.00597249 0)
(10.0264 0.00612902 0)
(10.0343 0.00586576 0)
(10.0423 0.00524549 0)
(10.0501 0.00432531 0)
(10.0577 0.00315439 0)
(10.065 0.00177487 0)
(10.072 0.000223921 0)
(10.0785 -0.00146468 0)
(10.0847 -0.0032594 0)
(10.0904 -0.00513025 0)
(10.0958 -0.00704891 0)
(10.1007 -0.00898898 0)
(10.1053 -0.0109269 0)
(10.0001 -0.000720861 0)
(10.0018 -0.00133067 0)
(10.0057 -0.00235433 0)
(10.0112 -0.00334481 0)
(10.0177 -0.00432468 0)
(10.0249 -0.00532044 0)
(10.0324 -0.00635666 0)
(10.04 -0.0074526 0)
(10.0475 -0.00862042 0)
(10.0547 -0.00986516 0)
(10.0617 -0.0111856 0)
(10.0683 -0.0125751 0)
(10.0745 -0.0140234 0)
(10.0804 -0.0155176 0)
(10.0859 -0.017043 0)
(10.091 -0.018585 0)
(10.0958 -0.0201288 0)
(10.1002 -0.021661 0)
(10.0001 -0.00150493 0)
(10.002 -0.00552074 0)
(10.0062 -0.00940105 0)
(10.012 -0.0126514 0)
(10.0189 -0.0153032 0)
(10.0263 -0.0174606 0)
(10.034 -0.0192495 0)
(10.0416 -0.0207857 0)
(10.049 -0.0221611 0)
(10.0562 -0.0234419 0)
(10.063 -0.0246725 0)
(10.0695 -0.0258796 0)
(10.0756 -0.0270775 0)
(10.0813 -0.0282719 0)
(10.0867 -0.0294632 0)
(10.0917 -0.0306483 0)
(10.0964 -0.0318224 0)
(10.1008 -0.0329805 0)
(10.0001 -0.00228425 0)
(10.0023 -0.00917338 0)
(10.0073 -0.0154359 0)
(10.014 -0.0204474 0)
(10.0217 -0.0242957 0)
(10.0298 -0.0272008 0)
(10.0379 -0.0294104 0)
(10.0459 -0.0311405 0)
(10.0535 -0.0325562 0)
(10.0608 -0.0337739 0)
(10.0677 -0.034871 0)
(10.0742 -0.0358963 0)
(10.0803 -0.0368789 0)
(10.0861 -0.0378352 0)
(10.0914 -0.0387734 0)
(10.0964 -0.0396965 0)
(10.101 -0.0406047 0)
(10.1054 -0.0414964 0)
(10.0001 -0.00315159 0)
(10.003 -0.0130796 0)
(10.0092 -0.0217236 0)
(10.0173 -0.0283174 0)
(10.0262 -0.033094 0)
(10.0353 -0.0364637 0)
(10.0441 -0.0388444 0)
(10.0526 -0.0405717 0)
(10.0606 -0.0418859 0)
(10.0681 -0.0429466 0)
(10.0751 -0.0438548 0)
(10.0817 -0.0446722 0)
(10.0878 -0.0454352 0)
(10.0936 -0.046165 0)
(10.099 -0.0468732 0)
(10.104 -0.0475652 0)
(10.1086 -0.0482434 0)
(10.113 -0.048908 0)
(10.0002 -0.00415474 0)
(10.004 -0.0174741 0)
(10.012 -0.0285391 0)
(10.022 -0.0365068 0)
(10.0325 -0.041899 0)
(10.0427 -0.0454191 0)
(10.0524 -0.0477104 0)
(10.0615 -0.0492423 0)
(10.0698 -0.0503248 0)
(10.0776 -0.0511475 0)
(10.0848 -0.0518216 0)
(10.0915 -0.0524107 0)
(10.0977 -0.0529509 0)
(10.1035 -0.0534624 0)
(10.1088 -0.0539564 0)
(10.1139 -0.0544385 0)
(10.1185 -0.0549113 0)
(10.1229 -0.0553755 0)
(10.0002 -0.00532574 0)
(10.0054 -0.0225726 0)
(10.0159 -0.0360548 0)
(10.0282 -0.0451237 0)
(10.0406 -0.0507599 0)
(10.0522 -0.0540925 0)
(10.0628 -0.0560361 0)
(10.0724 -0.0571969 0)
(10.0811 -0.0579382 0)
(10.089 -0.0584601 0)
(10.0963 -0.0588676 0)
(10.103 -0.0592147 0)
(10.1092 -0.0595296 0)
(10.115 -0.0598275 0)
(10.1203 -0.0601167 0)
(10.1253 -0.0604018 0)
(10.1299 -0.0606845 0)
(10.1342 -0.0609649 0)
(10.0002 -0.00663824 0)
(10.0073 -0.0286023 0)
(10.0212 -0.044343 0)
(10.0363 -0.054168 0)
(10.0508 -0.0596109 0)
(10.0637 -0.0624036 0)
(10.075 -0.0637507 0)
(10.0849 -0.0643863 0)
(10.0937 -0.0647002 0)
(10.1016 -0.0648774 0)
(10.1088 -0.0649986 0)
(10.1155 -0.0650971 0)
(10.1215 -0.065187 0)
(10.1271 -0.0652751 0)
(10.1323 -0.0653657 0)
(10.1371 -0.0654619 0)
(10.1414 -0.0655647 0)
(10.1455 -0.0656725 0)
(10.0001 -0.0078939 0)
(10.0099 -0.0358086 0)
(10.028 -0.0533642 0)
(10.0461 -0.0635185 0)
(10.0626 -0.0682708 0)
(10.0765 -0.0701749 0)
(10.0883 -0.0707094 0)
(10.0983 -0.0707082 0)
(10.1069 -0.0705447 0)
(10.1146 -0.0703581 0)
(10.1216 -0.0701865 0)
(10.1278 -0.0700334 0)
(10.1335 -0.0698959 0)
(10.1387 -0.0697719 0)
(10.1433 -0.0696618 0)
(10.1476 -0.0695683 0)
(10.1515 -0.0694932 0)
(10.155 -0.069433 0)
(9.99958 -0.00887146 0)
(10.0131 -0.0442447 0)
(10.0359 -0.062958 0)
(10.0573 -0.0729749 0)
(10.0759 -0.0765428 0)
(10.0908 -0.077265 0)
(10.1027 -0.0768213 0)
(10.1124 -0.0760961 0)
(10.1205 -0.0754044 0)
(10.1274 -0.0748166 0)
(10.1333 -0.0743185 0)
(10.1384 -0.073881 0)
(10.1429 -0.0734839 0)
(10.1467 -0.0731167 0)
(10.15 -0.072776 0)
(10.1528 -0.0724654 0)
(10.1552 -0.0721894 0)
(10.1572 -0.0719455 0)
(9.99619 -0.00214659 0)
(10.017 -0.0554342 0)
(10.0459 -0.073195 0)
(10.0723 -0.0823575 0)
(10.0936 -0.0843313 0)
(10.1089 -0.0835325 0)
(10.1196 -0.0818419 0)
(10.1268 -0.0801769 0)
(10.1314 -0.0787771 0)
(10.134 -0.0776293 0)
(10.1352 -0.0766586 0)
(10.1351 -0.0757986 0)
(10.1339 -0.0750087 0)
(10.1318 -0.0742677 0)
(10.1288 -0.0735664 0)
(10.125 -0.0729077 0)
(10.1205 -0.0723012 0)
(10.1154 -0.0717554 0)
(9.99374 -0.0631257 0)
(10.0233 -0.0517966 0)
(10.0719 -0.0850695 0)
(10.1057 -0.0942467 0)
(10.1235 -0.0929177 0)
(10.1262 -0.0889084 0)
(10.1168 -0.08451 0)
(10.0979 -0.0806444 0)
(10.0723 -0.0774184 0)
(10.0415 -0.0747008 0)
(10.0069 -0.0723315 0)
(9.96944 -0.0701894 0)
(9.92999 -0.0682003 0)
(9.88915 -0.0663237 0)
(9.84748 -0.0645396 0)
(9.80541 -0.0628461 0)
(9.76332 -0.0612555 0)
(9.7215 -0.0597988 0)
(9.85145 1.36809 0)
(10.1935 -0.41934 0)
(10.1386 -0.237361 0)
(10.0328 -0.146658 0)
(9.86734 -0.100452 0)
(9.66933 -0.0731288 0)
(9.4672 -0.0556267 0)
(9.27635 -0.0443908 0)
(9.10276 -0.0372898 0)
(8.94698 -0.0327984 0)
(8.80735 -0.029877 0)
(8.68172 -0.02786 0)
(8.56808 -0.0263446 0)
(8.46474 -0.0251058 0)
(8.37035 -0.0240251 0)
(8.28381 -0.0230469 0)
(8.20419 -0.022159 0)
(8.13074 -0.0214169 0)
(0.00275157 -0.0118648 0)
(0.0130321 -0.0105287 0)
(0.0303994 -0.0120076 7.76245e-20)
(0.0432502 -0.00797047 0)
(0.0490814 -0.00282695 0)
(0.0480247 0.00179672 0)
(0.0413477 0.00524401 0)
(0.0304923 0.00766455 0)
(0.0165757 0.00939687 -5.57621e-20)
(0.000389743 0.0106476 0)
(-0.017614 0.0114615 0)
(-0.037207 0.0120605 0)
(-0.0581962 0.0125791 0)
(-0.080503 0.0130648 0)
(-0.104057 0.0135285 0)
(-0.128803 0.0139671 0)
(-0.154699 0.0143772 5.16848e-20)
(-0.181656 0.0147447 0)
(-0.209609 0.0150701 -2.1683e-20)
(-0.238459 0.0153464 1.9997e-20)
(-0.26812 0.0155715 0)
(-0.298513 0.0157545 0)
(-0.329525 0.0158813 0)
(-0.361075 0.0159634 0)
(-0.393086 0.0160083 0)
(-0.425472 0.0160151 0)
(-0.458177 0.0159885 -1.26341e-20)
(-0.491134 0.0159368 0)
(-0.524297 0.0158633 1.14033e-20)
(-0.557622 0.0157722 0)
(-0.591076 0.015667 -1.03961e-20)
(-0.62463 0.0155519 0)
(-0.658256 0.0154315 0)
(-0.691949 0.0153079 9.19461e-21)
(-0.725671 0.01518 0)
(-0.759434 0.0150599 0)
(-0.793229 0.0149402 1.65299e-20)
(-0.827006 0.0148017 0)
(-0.860824 0.0146854 0)
(-0.894643 0.0145635 1.50585e-20)
(-0.928514 0.0144488 0)
(-0.962368 0.0143063 7.11975e-21)
(-0.996235 0.0141665 0)
(-1.03014 0.0140154 -1.35263e-20)
(-1.06399 0.0138409 0)
(-1.09777 0.0137185 0)
(-1.13149 0.0136863 0)
(-1.16499 0.0137939 0)
(-1.19841 0.0141772 0)
(-1.23165 0.0147504 1.19141e-20)
(-1.26492 0.0154434 0)
(-1.29819 0.0160468 0)
(-1.33182 0.0163784 0)
(-1.36603 0.0164375 0)
(-1.40102 0.0168841 0)
(-1.4364 0.0136916 0)
(-1.47049 0.00212964 1.16808e-20)
(-1.49867 -0.00538399 0)
(-1.52905 0.00165045 -5.62248e-21)
(-1.56116 0.00291244 -1.08478e-20)
(-1.59291 0.0172533 0)
(-1.63069 0.0313715 1.03475e-20)
(-1.6666 0.0318103 0)
(-1.69874 0.0347547 -1.03123e-20)
(-1.72947 0.0724684 0)
(-1.78375 0.0479424 1.36603e-20)
(-1.8045 -0.0699067 1.42558e-20)
(-1.81644 -0.122142 -1.24216e-20)
(-1.83751 0.0498623 0)
(-1.88733 0.0829981 0)
(-1.93898 0.12873 1.05807e-20)
(-1.9668 -0.0496059 0)
(-1.9943 0.0232915 0)
(-2.01394 -0.0601353 -2.56218e-20)
(-2.03693 -0.0412005 0)
(-2.06914 -0.0852684 0)
(-2.07566 -0.0264925 0)
(-2.1262 0.0627632 8.54073e-21)
(-2.15533 0.103317 0)
(-2.21032 0.099483 -2.21238e-20)
(-2.21307 0.00294673 1.15051e-20)
(-2.22688 0.00658064 0)
(-2.2466 0.00711638 -1.10063e-20)
(-2.2664 0.00689642 -2.15291e-20)
(-2.28526 0.00652323 -1.05192e-20)
(-2.30272 0.00607665 0)
(-2.31883 0.00557789 0)
(-2.33333 0.00503928 0)
(-2.34565 0.00440298 0)
(-2.35599 0.0036225 0)
(-2.36478 0.00271711 -1.78725e-20)
(-2.37125 0.00180898 0)
(-2.37493 0.000943155 0)
(-2.37597 0.000142008 -8.03363e-21)
(-2.3745 -0.000605826 0)
(-2.37046 -0.0013768 0)
(-2.3637 -0.00215647 1.40205e-20)
(-2.35421 -0.00297248 0)
(-2.34188 -0.00378873 0)
(-2.32684 -0.00461997 0)
(-2.30895 -0.00549357 0)
(-2.28804 -0.00639502 0)
(-2.26397 -0.00730248 0)
(-2.23682 -0.00823944 0)
(-2.20653 -0.00919565 6.99269e-21)
(-2.17286 -0.0101406 0)
(-2.13602 -0.011119 0)
(-2.09578 -0.0120783 0)
(-2.05236 -0.013064 2.30377e-21)
(-2.00558 -0.0140266 -9.75689e-22)
(-1.95564 -0.0149872 0)
(-1.90259 -0.0159506 -1.88791e-21)
(-1.84653 -0.0168773 0)
(-1.78758 -0.0177786 0)
(-1.72587 -0.0186343 -6.74236e-21)
(-1.66162 -0.0194485 0)
(-1.59504 -0.0201974 0)
(-1.52633 -0.0208694 0)
(-1.45583 -0.0214612 0)
(-1.38371 -0.021968 0)
(-1.31037 -0.0224096 0)
(-1.23613 -0.0228223 0)
(-1.16155 -0.0233351 2.32988e-20)
(-1.08729 -0.0243552 0)
(-1.01477 -0.0270553 -2.84909e-20)
(-0.946112 -0.0376399 0)
(-0.879004 -0.0821165 0)
(-0.755563 -0.0866137 1.61122e-20)
(-0.694577 -0.0476131 0)
(-0.617888 -0.0377391 0)
(-0.557243 -0.0189041 0)
(-0.496129 -0.0283171 -3.62239e-20)
(-0.4322 -0.0280825 0)
(-0.370014 -0.0326157 0)
(-0.31379 -0.0213916 0)
(-0.259061 -0.0238751 3.80161e-20)
(-0.20814 -0.0204019 0)
(-0.161081 -0.0177786 -1.99241e-20)
(-0.117087 -0.0166145 2.06288e-20)
(-0.0762446 -0.015454 0)
(-0.0388073 -0.0141932 0)
(-0.00483532 -0.0129415 -4.52922e-20)
(0.0256187 -0.0116405 0)
(0.0525308 -0.0103904 0)
(0.0757105 -0.0091468 0)
(0.0946827 -0.00833718 -4.93397e-20)
(0.11054 -0.0137629 0)
(0.132831 -0.0317273 0)
(0.145111 -0.00306014 0)
(0.140806 0.0234623 0)
(0.146147 -0.0251366 0)
(0.153296 -0.0130417 2.74626e-19)
(0.15295 -0.000857856 0)
(0.151843 0.0289912 7.69243e-20)
(0.145021 -0.00352988 0)
(0.146732 -0.0215465 9.76307e-20)
(0.125785 -0.00867145 0)
(0.111255 -0.00115244 0)
(0.102631 -0.000102156 0)
(0.0940533 0.00107295 0)
(0.0846294 0.00118077 0)
(0.0690395 0.00372019 0)
(0.075523 0.0166248 0)
(0.0882037 0.00530858 0)
(0.0869816 0.00268875 -2.29751e-19)
(0.0950149 0.00424787 0)
(0.0978131 -0.000357172 0)
(0.103802 -0.00109693 1.25319e-19)
(0.110066 -0.00128145 0)
(0.117503 -0.00146267 0)
(0.125561 -0.00138304 1.25819e-19)
(0.131768 -0.00309673 0)
(0.14074 -0.0107518 -1.91793e-19)
(0.143119 -0.00369778 0)
(0.155376 -0.00436659 0)
(0.173758 -0.00574619 0)
(0.197166 -0.00663074 0)
(0.223091 -0.00704042 0)
(0.24867 -0.0063526 0)
(0.269915 -0.00337127 0)
(0.00213389 -0.0366778 -3.16128e-19)
(0.0127493 -0.0355762 -2.44054e-20)
(0.0142889 -0.0230178 1.33996e-20)
(0.0109564 -0.00830437 0)
(0.0040505 0.00582066 0)
(-0.00591246 0.0182294 8.15842e-21)
(-0.0187509 0.028524 -1.52222e-20)
(-0.0343273 0.0367376 0)
(-0.0524222 0.0431639 2.06519e-20)
(-0.0727524 0.0481911 -1.56223e-23)
(-0.0950149 0.0521969 0)
(-0.118921 0.0554837 1.21582e-20)
(-0.144212 0.0582625 0)
(-0.170687 0.0606743 0)
(-0.198173 0.0627987 0)
(-0.226523 0.0646692 0)
(-0.255622 0.0662994 -2.00689e-20)
(-0.28537 0.0676974 0)
(-0.315672 0.0688663 0)
(-0.34645 0.0698147 -1.80204e-20)
(-0.377629 0.0705479 0)
(-0.409146 0.0710809 -1.68443e-20)
(-0.440938 0.0714291 -8.17422e-21)
(-0.472955 0.0716096 -1.58083e-20)
(-0.505146 0.0716412 1.53349e-20)
(-0.537471 0.0715442 7.42869e-21)
(-0.569901 0.0713398 2.17314e-20)
(-0.602402 0.071046 0)
(-0.634947 0.0706763 6.87724e-21)
(-0.667521 0.0702484 -6.70492e-21)
(-0.700108 0.0697748 -1.3085e-20)
(-0.732698 0.069268 6.38909e-21)
(-0.765279 0.0687381 -6.2454e-21)
(-0.797856 0.0681939 0)
(-0.830415 0.0676451 -5.98174e-21)
(-0.862967 0.0670949 0)
(-0.895511 0.0665479 0)
(-0.928046 0.0660067 5.63721e-21)
(-0.960582 0.0654712 0)
(-0.993118 0.0649501 5.43669e-21)
(-1.02566 0.0644375 0)
(-1.05823 0.0639383 0)
(-1.0908 0.0634446 -5.14117e-21)
(-1.12342 0.0629483 0)
(-1.15606 0.0624392 0)
(-1.18876 0.061912 1.4794e-20)
(-1.22152 0.0613592 0)
(-1.25435 0.0608044 0)
(-1.28728 0.0602755 4.74692e-21)
(-1.32032 0.0598393 -9.36522e-21)
(-1.35353 0.0595412 1.97122e-23)
(-1.38693 0.0594479 0)
(-1.42053 0.0595359 -1.86134e-20)
(-1.45427 0.0597225 -9.38985e-21)
(-1.48776 0.0597619 0)
(-1.52093 0.0591315 -9.64399e-21)
(-1.55453 0.057145 9.71232e-21)
(-1.58983 0.0555961 0)
(-1.62387 0.0557424 9.38801e-21)
(-1.65716 0.0544226 -2.70194e-20)
(-1.6899 0.0545195 1.7372e-20)
(-1.72045 0.0555433 0)
(-1.75121 0.0541356 1.7365e-20)
(-1.7835 0.0522416 -2.66444e-20)
(-1.81453 0.0529652 -9.38205e-21)
(-1.84018 0.0513398 2.02026e-20)
(-1.87475 0.0463224 9.80367e-21)
(-1.91179 0.043802 1.75998e-20)
(-1.94401 0.0508708 -1.62807e-20)
(-1.9664 0.0518657 0)
(-1.98732 0.0501428 8.7523e-21)
(-2.01625 0.0415419 1.79976e-20)
(-2.04462 0.0406789 0)
(-2.07382 0.0370231 0)
(-2.10108 0.0389573 0)
(-2.12624 0.0372272 1.68213e-20)
(-2.15536 0.0388045 0)
(-2.172 0.0388372 -1.46268e-20)
(-2.19061 0.0367353 -7.37916e-21)
(-2.20337 0.0309021 0)
(-2.228 0.0254207 0)
(-2.24834 0.0252955 0)
(-2.26491 0.0242617 -7.40641e-21)
(-2.27959 0.0225783 2.1679e-20)
(-2.29271 0.0205766 0)
(-2.30421 0.0184084 -1.37703e-20)
(-2.31407 0.0161059 0)
(-2.3222 0.0136963 0)
(-2.32832 0.0112049 2.52394e-20)
(-2.3324 0.00857021 0)
(-2.33472 0.00576965 -1.17997e-20)
(-2.33515 0.00289007 1.13672e-20)
(-2.33347 -1.28411e-05 0)
(-2.32955 -0.00297128 0)
(-2.32324 -0.00598454 0)
(-2.31439 -0.00906379 0)
(-2.30292 -0.0122059 -8.93183e-21)
(-2.28868 -0.0154043 0)
(-2.2717 -0.0185837 1.57208e-20)
(-2.25189 -0.0217656 0)
(-2.22918 -0.0250032 0)
(-2.20352 -0.028283 6.1352e-21)
(-2.17486 -0.0315762 0)
(-2.14313 -0.0348735 0)
(-2.10829 -0.0381532 0)
(-2.07034 -0.0413916 -1.06144e-20)
(-2.02926 -0.0445823 0)
(-1.98506 -0.0476959 2.08354e-21)
(-1.93779 -0.0507241 2.92176e-21)
(-1.88749 -0.0536373 6.20653e-22)
(-1.83425 -0.056418 1.32008e-22)
(-1.77818 -0.0590524 -6.57008e-22)
(-1.7194 -0.061499 -1.6724e-21)
(-1.65806 -0.0637451 -2.45665e-21)
(-1.59434 -0.0657642 6.22305e-21)
(-1.52845 -0.0675329 0)
(-1.46062 -0.0690082 0)
(-1.39107 -0.0701821 0)
(-1.32015 -0.071036 -1.25709e-20)
(-1.24807 -0.0715435 0)
(-1.1752 -0.0716988 0)
(-1.1018 -0.0715026 8.78133e-21)
(-1.02827 -0.0709522 1.8753e-20)
(-0.954698 -0.0700791 0)
(-0.880888 -0.0689512 0)
(-0.805936 -0.0681833 0)
(-0.731779 -0.0703535 0)
(-0.674745 -0.0666989 -2.14663e-20)
(-0.604759 -0.0606492 0)
(-0.541232 -0.0583941 0)
(-0.475619 -0.0548846 0)
(-0.412497 -0.0545098 0)
(-0.353615 -0.0521142 0)
(-0.296962 -0.0499515 0)
(-0.242708 -0.0459744 -1.52232e-20)
(-0.19168 -0.0435127 -1.7523e-22)
(-0.143738 -0.0402684 0)
(-0.0988692 -0.03722 0)
(-0.057322 -0.0342917 1.37016e-22)
(-0.019177 -0.0313004 3.45075e-20)
(0.015586 -0.0282637 -3.51258e-20)
(0.0469627 -0.0252699 -3.56025e-20)
(0.0749883 -0.0223071 -3.59937e-20)
(0.0997329 -0.0194176 0)
(0.121346 -0.0165091 3.65641e-20)
(0.140275 -0.0136594 0)
(0.156874 -0.0128479 -3.81393e-20)
(0.169446 -0.013012 0)
(0.180792 -0.00758012 1.17491e-19)
(0.189302 -0.000417924 -4.87064e-20)
(0.193412 -0.00663974 0)
(0.19639 -0.00112301 0)
(0.197648 -0.00169842 8.57511e-20)
(0.195134 0.00452962 5.13778e-20)
(0.193914 0.0017743 3.91923e-20)
(0.190929 0.000410036 5.28555e-20)
(0.191235 0.00694126 2.00025e-19)
(0.188822 0.00515612 0)
(0.184133 0.00444794 0)
(0.179861 0.00471452 1.76544e-19)
(0.176851 0.00430925 0)
(0.17495 0.00294014 1.10813e-19)
(0.170237 0.00221131 1.92778e-19)
(0.165632 0.00249262 0)
(0.165286 -0.000549984 0)
(0.165196 -0.000810464 4.20999e-20)
(0.168239 -0.00254244 3.91624e-20)
(0.174388 -0.00368642 0)
(0.183515 -0.00467295 -7.6855e-20)
(0.195444 -0.00574513 0)
(0.210328 -0.00637374 7.61069e-20)
(0.228228 -0.00758044 0)
(0.251327 -0.00873156 -4.18244e-20)
(0.277231 -0.00933893 9.13162e-20)
(0.304937 -0.0120011 0)
(0.335233 -0.0144765 0)
(0.368458 -0.0160985 -9.79128e-20)
(0.403908 -0.016793 0)
(0.440108 -0.015535 0)
(0.475686 -0.0101838 -1.06888e-19)
(-0.000641996 -0.0401041 2.84006e-19)
(-0.00242888 -0.0334944 1.35164e-19)
(-0.0102779 -0.0112028 3.47993e-20)
(-0.0207292 0.00976888 -1.27463e-23)
(-0.0330464 0.0287944 2.10506e-20)
(-0.0470226 0.0456095 -1.86896e-20)
(-0.0626208 0.0601008 3.44358e-20)
(-0.0798652 0.0723206 -1.61972e-20)
(-0.0987533 0.0824592 0)
(-0.119237 0.0908014 -1.47812e-20)
(-0.141209 0.0976597 0)
(-0.164523 0.103327 0)
(-0.189021 0.108054 -1.32426e-20)
(-0.214538 0.112027 0)
(-0.240923 0.11538 -2.47705e-20)
(-0.26804 0.118202 0)
(-0.295779 0.120561 -1.16162e-20)
(-0.324037 0.122495 1.12575e-20)
(-0.352735 0.124038 0)
(-0.3818 0.125218 -1.23552e-23)
(-0.411172 0.126065 0)
(-0.440797 0.126608 9.98035e-21)
(-0.470631 0.126874 0)
(-0.50064 0.126898 -2.83504e-20)
(-0.530781 0.126707 9.21305e-21)
(-0.561032 0.126334 -8.95854e-21)
(-0.591368 0.125805 0)
(-0.621762 0.125147 -8.54767e-21)
(-0.6522 0.124387 8.35409e-21)
(-0.682666 0.123547 1.26828e-23)
(-0.713152 0.122647 8.01249e-21)
(-0.743646 0.121703 -7.85016e-21)
(-0.77414 0.120732 -1.53918e-20)
(-0.804637 0.119745 0)
(-0.835127 0.118754 -7.41315e-21)
(-0.865615 0.117762 1.45402e-20)
(-0.896103 0.116781 1.42936e-20)
(-0.926588 0.115816 1.40849e-20)
(-0.957083 0.11487 1.38375e-20)
(-0.987582 0.113945 1.36268e-20)
(-1.0181 0.113041 1.3428e-20)
(-1.04863 0.112158 1.3239e-20)
(-1.07918 0.111296 0)
(-1.10977 0.110446 1.28897e-20)
(-1.1404 0.109608 0)
(-1.17109 0.108776 2.40356e-23)
(-1.20185 0.107953 0)
(-1.23268 0.107152 0)
(-1.26358 0.106392 0)
(-1.29454 0.105703 0)
(-1.32551 0.105112 0)
(-1.35643 0.104625 0)
(-1.38726 0.104209 1.19454e-20)
(-1.41792 0.103785 -1.19933e-20)
(-1.44842 0.103174 1.20608e-20)
(-1.47886 0.102112 2.42169e-20)
(-1.50954 0.100534 0)
(-1.54057 0.0988589 -1.18866e-20)
(-1.57136 0.0972684 -1.16468e-20)
(-1.60185 0.0956387 0)
(-1.63189 0.094516 0)
(-1.661 0.0937226 0)
(-1.6894 0.0925668 2.18807e-20)
(-1.71752 0.0910464 -1.08882e-20)
(-1.74526 0.0892882 -1.09193e-20)
(-1.77284 0.0864568 -1.09656e-20)
(-1.80165 0.0830909 -1.09211e-20)
(-1.83075 0.0812051 0)
(-1.85765 0.0816834 -1.04224e-20)
(-1.88121 0.0813238 -1.02801e-20)
(-1.90389 0.0783991 -1.0307e-20)
(-1.9279 0.0739104 -1.02992e-20)
(-1.95276 0.070111 0)
(-1.97758 0.0669075 0)
(-2.00149 0.0646074 0)
(-2.02422 0.0623123 2.9605e-20)
(-2.04541 0.0609156 1.90574e-20)
(-2.06359 0.05935 0)
(-2.08013 0.0563946 0)
(-2.096 0.0515046 0)
(-2.11299 0.0465023 0)
(-2.12904 0.0428747 0)
(-2.14327 0.0395059 8.59704e-21)
(-2.15581 0.0359645 -1.67924e-20)
(-2.16676 0.0322064 8.20617e-21)
(-2.17613 0.0282512 -7.99677e-21)
(-2.18387 0.0241157 0)
(-2.18991 0.0198162 0)
(-2.19408 0.0153752 0)
(-2.19631 0.0107718 1.41777e-20)
(-2.19674 0.00598079 0)
(-2.19521 0.00103722 1.31614e-20)
(-2.19155 -0.00402968 0)
(-2.18566 -0.00922653 2.76407e-23)
(-2.17743 -0.014549 0)
(-2.16675 -0.0199902 1.09171e-20)
(-2.15354 -0.0255396 -1.03136e-20)
(-2.13769 -0.031174 9.73808e-21)
(-2.11922 -0.036794 0)
(-2.09801 -0.0424319 -1.68484e-20)
(-2.074 -0.0481313 7.78444e-21)
(-2.04715 -0.0538776 6.8414e-23)
(-2.01742 -0.0596408 0)
(-1.98476 -0.0653908 5.59723e-21)
(-1.94916 -0.0710955 0)
(-1.9106 -0.0767233 0)
(-1.86909 -0.0822417 0)
(-1.82465 -0.0876152 0)
(-1.77733 -0.0928117 1.73787e-21)
(-1.72719 -0.0977927 0)
(-1.67433 -0.102519 2.12458e-22)
(-1.61885 -0.106956 0)
(-1.56089 -0.111057 0)
(-1.50061 -0.114782 -4.58966e-21)
(-1.43819 -0.118092 6.28031e-21)
(-1.37384 -0.120945 0)
(-1.30777 -0.123291 0)
(-1.24023 -0.125098 -1.71524e-20)
(-1.17155 -0.12634 1.30213e-20)
(-1.10191 -0.12699 0)
(-1.03168 -0.127033 -1.63131e-20)
(-0.961094 -0.126478 2.69898e-20)
(-0.890536 -0.125366 -2.93193e-20)
(-0.820188 -0.123815 1.06171e-20)
(-0.750274 -0.122065 1.13585e-20)
(-0.681181 -0.120513 2.41439e-20)
(-0.614804 -0.11935 0)
(-0.552733 -0.114524 -4.12814e-20)
(-0.487855 -0.108883 0)
(-0.425123 -0.104526 0)
(-0.363425 -0.099842 3.42928e-20)
(-0.304408 -0.0962302 -3.61696e-20)
(-0.248822 -0.0919011 0)
(-0.196007 -0.0870391 3.95683e-20)
(-0.145758 -0.081508 0)
(-0.0984432 -0.0762432 0)
(-0.054219 -0.0707134 4.40443e-20)
(-0.0130683 -0.0652312 0)
(0.0248259 -0.0598172 2.45636e-23)
(0.0594398 -0.0543973 0)
(0.0908361 -0.0490041 4.78446e-20)
(0.119058 -0.0436998 -4.85484e-20)
(0.144208 -0.0385243 0)
(0.166383 -0.0335212 0)
(0.185787 -0.0287009 -5.00098e-20)
(0.202789 -0.0242972 5.02806e-20)
(0.2171 -0.021514 0)
(0.2273 -0.0185425 0)
(0.236259 -0.011849 1.11611e-19)
(0.245293 -0.00583816 5.43649e-20)
(0.250397 -0.00718092 0)
(0.253828 -0.00330627 6.18078e-20)
(0.255461 -0.000583724 6.28471e-23)
(0.254955 0.0035761 5.62702e-20)
(0.254817 0.00282008 5.19324e-20)
(0.253241 0.00242791 -1.96195e-22)
(0.254912 0.00677574 0)
(0.255165 0.00678574 0)
(0.253769 0.0060555 -6.41344e-20)
(0.252851 0.00572095 0)
(0.253188 0.00461792 0)
(0.254276 0.00294972 1.39845e-19)
(0.253205 0.00215934 -1.33173e-19)
(0.253866 0.00144122 0)
(0.256897 -0.00179947 0)
(0.260501 -0.00268167 -5.335e-20)
(0.267919 -0.00572753 0)
(0.27785 -0.00854741 0)
(0.291125 -0.0110684 5.0996e-20)
(0.307588 -0.0136253 0)
(0.327532 -0.0159469 0)
(0.351275 -0.0189893 1.51701e-19)
(0.378804 -0.0214892 -5.23537e-20)
(0.411479 -0.0234361 -1.10196e-19)
(0.445698 -0.0272406 1.90553e-24)
(0.481881 -0.030928 0)
(0.520567 -0.033665 0)
(0.56159 -0.0350334 0)
(0.604334 -0.0338068 0)
(0.649407 -0.0280813 0)
(-0.00283472 -0.0251615 2.69224e-19)
(-0.0132227 -0.0113833 0)
(-0.0274399 0.0149695 0)
(-0.0428286 0.0385076 -3.89489e-20)
(-0.0588723 0.0596882 0)
(-0.0755979 0.0786012 0)
(-0.093092 0.0952727 1.2859e-20)
(-0.111456 0.10976 -2.40327e-20)
(-0.130776 0.122186 0)
(-0.151097 0.132732 0)
(-0.172422 0.141621 0)
(-0.194705 0.149077 2.01771e-20)
(-0.217875 0.155318 -9.74897e-21)
(-0.24184 0.160531 0)
(-0.2665 0.164867 -1.82604e-20)
(-0.291761 0.168446 0)
(-0.317533 0.171363 -1.71477e-20)
(-0.343737 0.173687 -3.32829e-20)
(-0.370306 0.175481 1.61547e-20)
(-0.397182 0.176796 0)
(-0.424318 0.177679 0)
(-0.45167 0.178175 -1.48518e-20)
(-0.479202 0.17833 0)
(-0.506885 0.178178 0)
(-0.534689 0.177761 -1.37528e-20)
(-0.562596 0.177121 0)
(-0.590586 0.176289 2.62495e-20)
(-0.618636 0.175304 0)
(-0.646738 0.174191 0)
(-0.674876 0.172979 9.67874e-24)
(-0.703043 0.171694 0)
(-0.731229 0.170357 -1.18203e-20)
(-0.759425 0.168987 0)
(-0.787637 0.167599 -1.14059e-20)
(-0.815853 0.166209 0)
(-0.844075 0.164823 1.10147e-20)
(-0.872302 0.163452 0)
(-0.900534 0.162103 0)
(-0.928778 0.160779 0)
(-0.95703 0.159484 0)
(-0.985296 0.15822 1.02369e-20)
(-1.01358 0.156987 -1.00936e-20)
(-1.04188 0.155784 0)
(-1.0702 0.15461 9.85014e-21)
(-1.09856 0.153459 9.73892e-21)
(-1.12694 0.152332 1.92782e-20)
(-1.15537 0.151226 9.53706e-21)
(-1.18382 0.150138 9.44576e-21)
(-1.2123 0.149069 0)
(-1.24079 0.148016 0)
(-1.26925 0.14698 -9.20183e-21)
(-1.29763 0.145951 0)
(-1.32587 0.144915 -9.11136e-21)
(-1.35392 0.143841 0)
(-1.38177 0.142665 2.71122e-20)
(-1.40946 0.141294 9.01232e-21)
(-1.43709 0.139656 0)
(-1.46471 0.137758 0)
(-1.49228 0.135662 -1.74153e-20)
(-1.51973 0.133466 0)
(-1.54693 0.131362 1.69536e-20)
(-1.57369 0.129368 0)
(-1.59993 0.127271 0)
(-1.62578 0.124919 -1.63911e-20)