/*--------------------------------*- C++ -*----------------------------------*\
  =========                 |
  \\      /  F ield         | OpenFOAM: The Open Source CFD Toolbox
   \\    /   O peration     | Website:  https://openfoam.org
    \\  /    A nd           | Version:  7
     \\/     M anipulation  |
\*---------------------------------------------------------------------------*/
FoamFile
{
    version     2.0;
    format      ascii;
    class       volScalarField;
    location    "500";
    object      epsilon;
}
// * * * * * * * * * * * * * * * * * * * * * * * * * * * * * * * * * * * * * //

dimensions      [0 2 -3 0 0 0 0];

internalField   nonuniform List<scalar> 
48900
(
215.677
970.794
838.515
844.006
995.29
1222.89
1416.73
1547.35
1626.15
1673.03
1702.93
1724.06
1740.64
1754.71
1766.93
1777.49
1786.16
1790.52
20.5242
211.362
289.39
410.556
613.876
874.678
1130.84
1344.47
1509.09
1632.84
1725.92
1797
1851.31
1892.76
1923.88
1946.4
1961.1
1966.47
14.6957
38.5977
60.1466
79.4666
99.7952
124.233
153.198
185.424
219.417
254.128
288.994
323.782
358.355
392.547
426.088
458.572
489.422
517.399
14.6767
18.7172
25.1894
31.4893
37.4179
43.2144
49.1195
55.205
61.4247
67.6983
73.9738
80.2278
86.4639
92.6991
98.9484
105.21
111.449
117.454
14.783
15.316
17.2218
19.5953
22.0015
24.3271
26.5705
28.7506
30.8745
32.9384
34.9346
36.8574
38.7044
40.4756
42.1724
43.7935
45.3336
46.7562
14.807
14.7497
15.0865
15.8721
16.8389
17.8605
18.88
19.8761
20.8404
21.7686
22.6573
23.504
24.3074
25.0664
25.7805
26.4485
27.0673
27.6271
14.8118
14.6519
14.5999
14.7068
14.9882
15.364
15.7886
16.2334
16.6819
17.1245
17.555
17.9697
18.3659
18.742
19.0967
19.4285
19.7353
20.0115
14.8115
14.6426
14.4978
14.4076
14.3902
14.438
14.5442
14.6851
14.8492
15.0261
15.2091
15.3933
15.5753
15.7525
15.9231
16.0854
16.2373
16.3753
14.8111
14.6409
14.4824
14.3418
14.2275
14.1453
14.0966
14.0765
14.081
14.1033
14.1397
14.1858
14.2382
14.2947
14.3532
14.4121
14.4697
14.5234
14.8108
14.6393
14.4787
14.329
14.1914
14.0683
13.9615
13.8716
13.7983
13.7396
13.6941
13.6598
13.6343
13.6164
13.6044
13.597
13.5931
13.5921
14.8107
14.6382
14.4765
14.3249
14.1827
14.0498
13.9265
13.8132
13.71
13.6167
13.5331
13.4584
13.3918
13.3325
13.2798
13.2327
13.1903
13.1515
14.8106
14.6375
14.475
14.3224
14.1789
14.0439
13.9168
13.7975
13.6856
13.5811
13.4838
13.3934
13.3095
13.2318
13.1598
13.0931
13.0312
12.9734
14.8105
14.637
14.474
14.3207
14.1765
14.0407
13.9126
13.7916
13.6775
13.5698
13.4684
13.3728
13.2828
13.1982
13.1185
13.0437
12.9732
12.9067
14.8104
14.6366
14.4731
14.3193
14.1746
14.0381
13.9093
13.7876
13.6726
13.5638
13.4608
13.3634
13.2711
13.1837
13.101
13.0225
12.9482
12.8776
14.8104
14.6363
14.4725
14.3182
14.1729
14.0359
13.9066
13.7844
13.6688
13.5594
13.4558
13.3576
13.2645
13.1761
13.0922
13.0125
12.9368
12.8647
14.8104
14.6361
14.472
14.3174
14.1717
14.0343
13.9045
13.7819
13.6658
13.556
13.4519
13.3532
13.2596
13.1707
13.0863
13.006
12.9297
12.8571
14.8103
14.6359
14.4716
14.3168
14.1708
14.033
13.9029
13.7799
13.6636
13.5534
13.4489
13.3499
13.2559
13.1666
13.0818
13.0011
12.9244
12.8514
14.8103
14.6358
14.4714
14.3164
14.1702
14.0322
13.9019
13.7786
13.662
13.5515
13.4468
13.3475
13.2532
13.1636
13.0786
12.9976
12.9207
12.8474
14.8103
14.6358
14.4713
14.3163
14.17
14.0319
13.9015
13.7781
13.6613
13.5506
13.4458
13.3462
13.2518
13.1621
13.0768
12.9957
12.9186
12.8452
14.8104
14.6359
14.4715
14.3165
14.1703
14.0323
13.9019
13.7785
13.6617
13.5511
13.4462
13.3467
13.2522
13.1624
13.0771
12.996
12.9188
12.8454
14.8104
14.636
14.4718
14.317
14.171
14.0332
13.903
13.7798
13.6631
13.5526
13.4478
13.3484
13.254
13.1644
13.0792
12.9982
12.9212
12.8479
14.8104
14.6363
14.4723
14.3178
14.1722
14.0347
13.9048
13.7819
13.6656
13.5555
13.4511
13.3521
13.2583
13.1694
13.085
13.005
12.9291
12.8571
14.8105
14.6367
14.4731
14.3192
14.1741
14.0373
13.9083
13.7866
13.6721
13.5645
13.4636
13.3689
13.2804
13.1976
13.1202
13.048
12.9805
12.9175
14.8106
14.6373
14.4745
14.3215
14.1786
14.0464
13.9257
13.8168
13.7198
13.6341
13.5589
13.4931
13.4359
13.3862
13.3431
13.3058
13.2735
13.2458
14.8103
14.6381
14.4776
14.3361
14.2214
14.1401
14.0886
14.0645
14.0636
14.0777
14.1058
14.1434
14.188
14.2378
14.2911
14.3468
14.4042
14.4629
14.8047
14.6393
14.5321
14.5364
14.6446
14.84
15.0805
15.3464
15.624
15.9058
16.1875
16.4667
16.7417
17.0116
17.2753
17.5325
17.7827
18.0266
14.7565
14.7811
15.2359
16.0951
17.083
18.0841
19.0594
20.0037
20.9235
21.826
22.7154
23.5928
24.4571
25.3064
26.1384
26.9514
27.7445
28.5183
14.6506
16.6903
20.4527
24.096
27.3634
30.389
33.348
36.3736
39.5344
42.8425
46.2756
49.796
53.364
56.9456
60.5147
64.0539
67.5525
71.0064
25.2544
36.759
52.7221
64.3282
75.4618
88.9369
105.763
126.169
149.538
174.844
201.044
227.28
252.95
277.694
301.329
323.794
345.098
365.287
660.187
256.982
290.806
361.725
482.91
657.26
859.937
1059.58
1233.49
1372.8
1478.62
1556.53
1612.96
1653.49
1682.46
1703.02
1717.44
1727.32
1.53666
0.913698
1.86069
2.6593
3.34388
3.97497
4.61341
5.26934
5.96521
6.71441
7.52395
8.39354
9.32779
10.3248
11.3863
12.5151
13.7099
14.9753
16.31
17.7186
19.2012
20.7548
22.3854
24.0915
25.8696
27.7265
29.6609
31.6737
33.7669
35.944
38.2085
40.5541
42.9807
45.4894
48.0879
50.764
53.5226
56.3747
59.302
62.3214
65.4137
68.597
71.8581
75.1831
78.5904
82.0627
85.5815
89.1831
92.8053
96.5023
100.208
103.984
107.761
111.605
115.482
119.339
123.239
127.126
130.952
134.698
138.367
141.923
145.361
148.709
151.991
155.221
158.328
161.03
162.588
162.789
161.927
160.345
159.405
162.229
164.702
705.726
750.87
764.396
725.138
734.761
777.824
766.319
170.385
169.387
752.234
809.192
771.963
172.201
801.187
816.637
809.87
831.797
803.038
176.448
767.907
783.409
800.83
818.132
835.133
851.82
868.215
884.285
900.185
915.793
930.971
945.902
960.454
974.687
988.505
1001.98
1015.09
1027.77
1039.99
1051.84
1063.26
1074.29
1084.84
1095.01
1104.74
1114.06
1122.93
1131.35
1139.27
1146.78
1153.79
1160.37
1166.39
1171.9
1176.92
1181.49
1185.5
1189.1
1191.82
1194.3
1195.1
1195.22
1192.86
1188.5
1191.19
1234.14
1625.67
1696.48
1364.04
1656.3
1989.69
1962.48
1705.45
1962.86
1955.12
1741.26
1811.06
1921.84
2159.82
2139.95
2114.5
2078.49
2041.34
2031.41
2009.4
1970.97
1884.9
1589.2
1683.74
1659.37
1614.41
1574.12
1399.24
1354.85
1313.99
175.733
169.908
216.611
263.563
1517.92
1209.87
262.116
247.752
270.427
1317.03
253.157
5.02764
1.38059
1.40967
1.59501
1.84197
2.13399
2.46715
2.83895
3.24778
3.6925
4.17197
4.68497
5.23052
5.80793
6.41679
7.05712
7.72949
8.43397
9.17092
9.94069
10.7437
11.5802
12.4508
13.3563
14.2972
15.2747
16.2898
17.3432
18.4366
19.5707
20.7465
21.9647
23.226
24.5314
25.8821
27.2783
28.7208
30.2098
31.7458
33.3282
34.9569
36.6304
38.348
40.1072
41.9072
43.745
45.6191
47.5284
49.4707
51.4464
53.4545
55.4973
57.5732
59.6835
61.8245
63.9912
66.1777
68.3757
70.5781
72.783
74.9945
77.2257
79.4903
81.8024
84.1665
86.5627
88.9495
91.2654
93.4832
95.6619
98.3561
102.691
110.519
125.594
150.494
165.227
166.362
164.257
160.675
174.187
175.274
163.618
159.246
177.873
200.711
202.741
194.724
194.751
205.746
208.49
212.084
215.205
210.273
206.804
227.877
231.864
236.573
241.253
245.842
250.422
254.978
259.481
263.932
268.32
272.631
276.87
281.041
285.12
289.126
293.036
296.864
300.607
304.249
307.804
311.275
314.648
317.932
321.122
324.212
327.211
330.115
332.915
335.618
338.228
340.733
343.136
345.435
347.632
349.724
351.711
353.58
355.324
356.926
358.394
359.642
360.711
361.607
363.496
370.878
401.211
483.05
506.068
479.643
535.091
588.193
581.836
541.236
565.494
564.905
549.453
571.799
606.903
662.751
670.646
665.649
656.897
647.134
638.023
624.785
599.94
562.888
504.651
496.848
491.94
482.177
469.568
424.932
386.537
369.258
238.435
206.801
199.132
183.872
332.717
294.807
201.209
179.022
168.522
271.106
193.688
9.14406
2.41539
2.12004
2.16804
2.33524
2.57422
2.86902
3.21221
3.59876
4.02438
4.48503
4.97731
5.49836
6.04593
6.61853
7.2155
7.83686
8.48216
9.15163
9.846
10.5655
11.3103
12.0804
12.8756
13.6979
14.5487
15.4292
16.3398
17.2816
18.2554
19.2627
20.304
21.38
22.4918
23.6398
24.8248
26.0473
27.3079
28.607
29.9445
31.3203
32.7341
34.1852
35.6729
37.1961
38.7536
40.3445
41.9678
43.6237
45.3127
47.0359
48.7956
50.5945
52.4346
54.3178
56.2442
58.2126
60.2212
62.2694
64.3578
66.4919
68.6821
70.9431
73.2918
75.7426
78.3062
80.9895
83.7969
86.7303
89.7779
92.971
96.5565
100.97
106.497
112.407
116.642
119.606
122.371
125.666
129.67
132.568
134.734
138.755
145.003
150.447
153.991
157.078
161.068
164.968
168.43
171.948
175.19
178.227
182.363
187.523
191.485
195.326
199.142
202.863
206.588
210.284
213.939
217.545
221.098
224.592
228.025
231.396
234.698
237.93
241.09
244.175
247.183
250.114
252.967
255.741
258.433
261.044
263.574
266.019
268.381
270.66
272.853
274.959
276.981
278.915
280.763
282.523
284.197
285.783
287.277
288.679
289.984
291.186
292.287
293.264
294.1
294.785
295.41
297.009
303.294
316.288
322.027
320.72
331.18
340.449
339.394
332.642
334.706
333.955
331.73
335.558
342.521
351.87
353.089
350.175
345.902
340.713
335.509
329.082
319.629
307.18
291.777
283.286
277.935
271.388
263.542
249.713
236.972
226.804
203.853
192.871
185.951
176.473
191.668
186.773
168.285
159.011
152.088
162.834
153.645
13.5023
3.5264
2.91577
2.85214
2.96279
3.16853
3.44172
3.76976
4.14523
4.56248
5.01673
5.50366
6.01961
6.56168
7.12767
7.71618
8.32638
8.95781
9.61042
10.2844
10.9804
11.6989
12.4409
13.2074
13.9991
14.8166
15.6609
16.5329
17.4337
18.3645
19.3266
20.3206
21.3472
22.4074
23.5016
24.6303
25.794
26.9931
28.2291
29.5022
30.8129
32.1613
33.5474
34.9713
36.4327
37.9312
39.4668
41.0394
42.6497
44.2985
45.9877
47.7198
49.4985
51.3269
53.209
55.148
57.1459
59.204
61.3243
63.5077
65.7575
68.081
70.4868
72.9847
75.5846
78.297
81.133
84.1018
87.2055
90.4274
93.7285
97.0828
100.517
104.06
107.642
111.126
114.522
117.909
121.395
125.017
128.614
132.197
136.006
140.069
144.112
148.024
151.891
155.768
159.567
163.342
167.157
170.962
174.773
178.72
182.708
186.559
190.351
194.118
197.783
201.445
205.078
208.668
212.208
215.691
219.113
222.47
225.759
228.975
232.115
235.176
238.155
241.051
243.86
246.582
249.215
251.756
254.206
256.562
258.823
260.99
263.06
265.035
266.912
268.692
270.374
271.958
273.445
274.833
276.124
277.316
278.409
279.4
280.29
281.079
281.766
282.349
282.825
283.204
283.632
284.763
287.05
288.557
288.614
290.012
291.212
290.493
288.777
288.061
286.741
285.142
284.436
284.147
283.859
281.905
278.71
274.899
270.622
265.974
260.769
254.73
247.974
240.514
233.868
227.91
221.678
215.098
207.893
200.697
194.004
186.652
181.111
175.416
168.205
164.365
159.791
153.167
147.911
143.255
140.966
137.148
17.7698
4.64933
3.718
3.54463
3.60115
3.77548
4.02791
4.3407
4.704
5.11111
5.55676
6.03648
6.54639
7.08337
7.64492
8.22933
8.83539
9.46253
10.1105
10.7796
11.4702
12.1829
12.9185
13.6778
14.4617
15.2711
16.107
16.9702
17.862
18.7832
19.735
20.7182
21.7334
22.782
23.8646
24.9823
26.1359
27.3262
28.5543
29.8205
31.1256
32.4704
33.8554
35.2816
36.7493
38.259
39.8115
41.4075
43.0484
44.7354
46.4706
48.2568
50.0975
51.996
53.9567
55.9831
58.0786
60.2459
62.488
64.8068
67.2052
69.6864
72.2538
74.9111
77.6611
80.5067
83.4524
86.502
89.6559
92.9062
96.2324
99.6082
103.014
106.448
109.917
113.426
116.983
120.586
124.245
127.986
131.802
135.671
139.592
143.566
147.575
151.606
155.65
159.702
163.754
167.821
171.908
176.002
180.093
184.187
188.27
192.319
196.332
200.32
204.198
208.06
211.89
215.673
219.398
223.06
226.652
230.168
233.606
236.958
240.222
243.393
246.467
249.443
252.315
255.082
257.742
260.291
262.729
265.055
267.263
269.357
271.334
273.194
274.934
276.556
278.058
279.442
280.707
281.853
282.882
283.793
284.586
285.261
285.821
286.267
286.605
286.846
287.004
287.113
287.208
287.402
287.795
288.026
287.668
287.166
286.495
285.427
284.096
282.662
280.888
278.938
277.017
274.971
272.596
269.604
266.039
262.045
257.675
252.936
247.788
242.24
236.393
230.232
223.984
217.78
211.493
205.124
198.792
192.527
186.421
180.844
175.696
170.169
164.038
158.245
153.165
148.325
143.941
139.772
135.889
132.506
21.7466
5.72899
4.48404
4.20193
4.20572
4.34869
4.57993
4.87649
5.22612
5.6211
6.05586
6.52579
7.02719
7.55693
8.1125
8.69208
9.2944
9.91869
10.5647
11.2323
11.9221
12.6344
13.3701
14.1299
14.9146
15.7252
16.5629
17.4285
18.3231
19.2478
20.2036
21.1916
22.2127
23.2681
24.3589
25.4861
26.6506
27.8536
29.0963
30.3794
31.7043
33.0719
34.4834
35.9401
37.4431
38.9937
40.5932
42.243
43.9451
45.7013
47.5138
49.3856
51.3199
53.3199
55.3897
57.5328
59.7522
62.0509
64.4318
66.8963
69.4465
72.0844
74.8114
77.6288
80.5367
83.5347
86.6233
89.8024
93.0721
96.4299
99.8688
103.379
106.953
110.584
114.274
118.027
121.844
125.725
129.671
133.688
137.778
141.935
146.146
150.404
154.702
159.035
163.398
167.787
172.199
176.632
181.081
185.536
189.991
194.44
198.876
203.289
207.67
212.023
216.258
220.466
224.634
228.748
232.796
236.769
240.66
244.463
248.171
251.778
255.28
258.67
261.943
265.097
268.125
271.026
273.795
276.43
278.927
281.284
283.5
285.572
287.5
289.283
290.919
292.408
293.749
294.943
295.99
296.892
297.647
298.258
298.726
299.053
299.241
299.289
299.208
299.013
298.723
298.375
298
297.629
297.234
296.655
295.706
294.479
293.07
291.477
289.708
287.733
285.504
283.104
280.583
277.853
274.8
271.333
267.455
263.218
258.646
253.74
248.484
242.912
237.095
231.048
224.825
218.519
212.157
205.761
199.412
193.143
187.024
181.259
175.704
170.086
164.387
158.818
153.696
148.965
144.58
140.456
136.584
133.238
25.3014
6.72848
5.18675
4.79936
4.75208
4.86416
5.07415
5.35415
5.68957
6.07164
6.49434
6.95314
7.44442
7.9652
8.51316
9.08649
9.68392
10.3046
10.9482
11.6147
12.3043
13.0175
13.755
14.5175
15.3058
16.121
16.9642
17.8363
18.7385
19.6718
20.6376
21.6369
22.6707
23.7406
24.8477
25.9931
27.1781
28.404
29.6724
30.9842
32.3411
33.7445
35.1959
36.6971
38.2498
39.8555
41.5165
43.2344
45.0119
46.8512
48.7549
50.7258
52.7675
54.8827
57.0752
59.3484
61.7051
64.1477
66.6792
69.3007
72.014
74.8205
77.7215
80.7177
83.8092
86.9955
90.2765
93.6517
97.1208
100.683
104.337
108.08
111.909
115.821
119.817
123.893
128.049
132.284
136.595
140.984
145.448
149.985
154.587
159.248
163.961
168.719
173.519
178.354
183.221
188.113
193.023
197.944
202.866
207.785
212.691
217.574
222.425
227.244
231.935
236.587
241.191
245.731
250.194
254.57
258.848
263.021
267.082
271.023
274.837
278.517
282.057
285.452
288.698
291.786
294.716
297.481
300.079
302.506
304.758
306.836
308.736
310.459
311.998
313.359
314.537
315.535
316.351
316.987
317.444
317.724
317.828
317.757
317.516
317.109
316.542
315.831
314.994
314.061
313.057
311.997
310.84
309.493
307.874
306.014
303.974
301.773
299.409
296.862
294.119
291.214
288.162
284.91
281.388
277.544
273.374
268.898
264.125
259.059
253.688
248.038
242.153
236.061
229.797
223.42
216.977
210.504
204.053
197.679
191.45
185.435
179.589
173.846
168.227
162.798
157.662
152.846
148.352
144.174
140.336
136.913
28.3511
7.62279
5.80934
5.32351
5.2271
5.30919
5.49836
5.76202
6.08334
6.45247
6.86294
7.31018
7.79065
8.3016
8.84083
9.40669
9.99798
10.6139
11.2541
11.9185
12.6072
13.3208
14.0598
14.825
15.6173
16.4377
17.2872
18.167
19.0783
20.0222
21.0001
22.0132
23.0628
24.1505
25.2775
26.4454
27.6556
28.9096
30.2093
31.556
32.9516
34.3979
35.8969
37.4507
39.0613
40.7309
42.4619
44.2569
46.1187
48.05
50.0535
52.1326
54.2907
56.5307
58.8561
61.2705
63.7763
66.3763
69.0732
71.8683
74.7636
77.7604
80.8605
84.065
87.3747
90.7895
94.3108
97.9381
101.672
105.511
109.457
113.508
117.663
121.92
126.279
130.737
135.292
139.94
144.681
149.51
154.427
159.425
164.5
169.645
174.854
180.121
185.44
190.804
196.206
201.638
207.093
212.562
218.036
223.507
228.965
234.399
239.798
245.16
250.386
255.558
260.672
265.71
270.658
275.502
280.233
284.84
289.314
293.645
297.826
301.848
305.704
309.387
312.889
316.204
319.328
322.255
324.98
327.499
329.809
331.905
333.787
335.453
336.899
338.125
339.131
339.918
340.484
340.831
340.958
340.868
340.564
340.051
339.331
338.408
337.292
335.994
334.533
332.931
331.213
329.388
327.432
325.295
322.937
320.375
317.645
314.765
311.743
308.571
305.249
301.789
298.197
294.439
290.472
286.262
281.798
277.085
272.119
266.902
261.42
255.689
249.735
243.582
237.262
230.814
224.286
217.721
211.167
204.681
198.321
192.123
186.085
180.204
174.508
169.031
163.815
158.893
154.288
150.018
146.106
142.545
30.8529
8.39665
6.34262
5.76708
5.6246
5.67825
5.84738
6.09522
6.40286
6.7594
7.15792
7.59371
8.06328
8.56406
9.09398
9.65159
10.2358
10.8458
11.4814
12.1425
12.8293
13.5421
14.2817
15.0489
15.8444
16.6694
17.5251
18.4125
19.3329
20.2878
21.2785
22.3065
23.373
24.4801
25.6292
26.8219
28.06
29.3453
30.68
32.0657
33.5047
34.9991
36.5512
38.1636
39.8388
41.5794
43.3882
45.2681
47.2226
49.2545
51.3673
53.5644
55.8495
58.2256
60.6967
63.2662
65.9369
68.7117
71.5938
74.5848
77.6872
80.9027
84.2335
87.6815
91.248
94.934
98.7414
102.671
106.722
110.897
115.194
119.614
124.155
128.816
133.596
138.493
143.505
148.627
153.856
159.19
164.624
170.153
175.77
181.471
187.247
193.093
199
204.961
210.966
217.008
223.077
229.163
235.256
241.345
247.42
253.468
259.48
265.447
271.267
277.017
282.697
288.287
293.772
299.136
304.366
309.452
314.383
319.147
323.732
328.132
332.336
336.335
340.123
343.69
347.029
350.135
353.003
355.627
357.999
360.122
361.987
363.595
364.94
366.024
366.844
367.401
367.695
367.723
367.49
366.997
366.248
365.245
363.994
362.502
360.774
358.826
356.673
354.337
351.844
349.204
346.41
343.437
340.271
336.924
333.422
329.79
326.039
322.173
318.2
314.128
309.96
305.676
301.251
296.658
291.885
286.923
281.762
276.395
270.805
264.997
258.982
252.773
246.399
239.888
233.284
226.631
219.977
213.378
206.881
200.524
194.321
188.291
182.462
176.86
171.521
166.474
161.745
157.353
153.311
149.581
32.7929
9.04219
6.78301
6.12848
5.94384
5.97097
6.12096
6.35358
6.64803
6.99243
7.37941
7.80406
8.26295
8.75355
9.27399
9.82292
10.3994
11.0028
11.6329
12.2897
12.9734
13.6846
14.4238
15.1919
15.9899
16.8188
17.68
18.5746
19.5042
20.4702
21.4741
22.5177
23.6024
24.7303
25.9033
27.1232
28.392
29.7119
31.0854
32.5145
34.0019
35.55
37.1617
38.8398
40.5875
42.4075
44.3035
46.2787
48.3369
50.4816
52.7166
55.0457
57.4733
60.0024
62.6375
65.3824
68.2403
71.2145
74.3088
77.5254
80.8671
84.3365
87.9364
91.6688
95.5361
99.5399
103.682
107.965
112.388
116.952
121.658
126.505
131.492
136.617
141.88
147.277
152.806
158.463
164.245
170.145
176.161
182.285
188.511
194.833
201.24
207.727
214.284
220.903
227.572
234.281
241.021
247.779
254.544
261.304
268.047
274.759
281.428
288.047
294.503
300.873
307.157
313.336
319.39
325.306
331.066
336.657
342.068
347.286
352.297
357.093
361.659
365.989
370.071
373.897
377.459
380.75
383.761
386.488
388.924
391.064
392.904
394.444
395.676
396.601
397.216
397.522
397.516
397.2
396.576
395.645
394.41
392.876
391.049
388.935
386.543
383.887
380.985
377.858
374.533
371.025
367.343
363.477
359.429
355.213
350.855
346.383
341.818
337.173
332.464
327.701
322.897
318.037
313.108
308.092
302.971
297.735
292.362
286.84
281.143
275.265
269.201
262.956
256.547
249.997
243.341
236.621
229.885
223.183
216.562
210.063
203.71
197.53
191.554
185.81
180.329
175.142
170.274
165.739
161.542
157.63
34.1792
9.5566
7.13089
6.40925
6.18698
6.19008
6.32214
6.54022
6.82198
7.15469
7.53054
7.94448
8.393
8.87367
9.38473
9.92495
10.4935
11.09
11.7142
12.3663
13.0465
13.7554
14.4938
15.2625
16.0624
16.8951
17.7618
18.6639
19.6032
20.5812
21.5997
22.6606
23.7657
24.9173
26.1174
27.3683
28.6725
30.0322
31.4506
32.9299
34.4734
36.084
37.7648
39.5195
41.3514
43.2641
45.2615
47.3475
49.5266
51.8026
54.18
56.663
59.2566
61.9644
64.7914
67.7416
70.8192
74.0278
77.372
80.8543
84.4785
88.2476
92.1647
96.233
100.455
104.832
109.367
114.062
118.918
123.935
129.113
134.453
139.952
145.608
151.42
157.385
163.5
169.758
176.158
182.692
189.354
196.138
203.035
210.039
217.137
224.324
231.586
238.914
246.297
253.723
261.177
268.65
276.126
283.593
291.036
298.442
305.797
313.092
320.208
327.217
334.122
340.901
347.538
354.011
360.306
366.407
372.299
377.968
383.401
388.586
393.508
398.157
402.524
406.598
410.367
413.826
416.964
419.776
422.252
424.391
426.186
427.632
428.724
429.464
429.846
429.872
429.536
428.844
427.793
426.389
424.632
422.528
420.082
417.302
414.198
410.787
407.087
403.119
398.913
394.49
389.866
385.047
380.045
374.88
369.581
364.181
358.711
353.19
347.651
342.106
336.579
331.064
325.56
320.053
314.53
308.972
303.356
297.661
291.852
285.91
279.816
273.56
267.149
260.594
253.925
247.174
240.389
233.617
226.901
220.287
213.806
207.492
201.379
195.494
189.872
184.541
179.525
174.837
170.473
166.378
35.0363
9.94187
7.38933
6.6133
6.35908
6.34072
6.45626
6.66062
6.93024
7.25175
7.61698
8.02071
8.45942
8.93067
9.43281
9.96481
10.526
11.1158
11.7344
12.3822
13.0593
13.7665
14.5046
15.2746
16.0777
16.9154
17.789
18.7004
19.6516
20.6445
21.6812
22.7636
23.8939
25.0748
26.3087
27.5981
28.9459
30.3551
31.829
33.3705
34.9833
36.6709
38.4372
40.2861
42.2218
44.2484
46.3706
48.5927
50.9199
53.3568
55.9085
58.5798
61.3762
64.3022
67.3632
70.5641
73.9093
77.4034
81.0512
84.8564
88.8227
92.9541
97.2536
101.725
106.371
111.193
116.195
121.378
126.743
132.29
138.018
143.929
150.017
156.283
162.722
169.331
176.106
183.041
190.13
197.366
204.743
212.25
219.881
227.623
235.467
243.403
251.416
259.497
267.63
275.804
284.003
292.213
300.419
308.608
316.761
324.867
332.908
340.878
348.648
356.288
363.8
371.165
378.362
385.371
392.174
398.755
405.098
411.186
417.006
422.542
427.781
432.713
437.323
441.601
445.538
449.121
452.343
455.197
457.673
459.765
461.469
462.78
463.691
464.202
464.31
464.012
463.307
462.196
460.679
458.76
456.439
453.724
450.62
447.136
443.284
439.078
434.54
429.693
424.567
419.188
413.578
407.756
401.74
395.559
389.244
382.834
376.37
369.883
363.415
356.99
350.642
344.378
338.208
332.127
326.123
320.181
314.274
308.374
302.438
296.433
290.326
284.089
277.715
271.202
264.568
257.838
251.053
244.256
237.491
230.803
224.231
217.811
211.583
205.576
199.824
194.357
189.197
184.355
179.826
175.555
35.3952
10.2027
7.56322
6.74623
6.46624
6.42947
6.53023
6.72197
6.98027
7.29131
7.6467
8.04098
8.47089
8.93393
9.42844
9.95336
10.5081
11.0925
11.7068
12.3515
13.0271
13.7345
14.4748
15.2494
16.0593
16.9064
17.792
18.7175
19.6864
20.7008
21.7632
22.8758
24.0412
25.2624
26.5423
27.8841
29.2911
30.7667
32.315
33.9396
35.6447
37.4346
39.3137
41.287
43.3591
45.535
47.82
50.2195
52.7394
55.3848
58.1615
61.0755
64.1327
67.3382
70.6982
74.2183
77.9034
81.7583
85.7892
89.9991
94.3932
98.9747
103.748
108.715
113.88
119.244
124.811
130.579
136.551
142.726
149.102
155.679
162.453
169.421
176.578
183.919
191.439
199.13
206.984
214.994
223.152
231.444
239.862
248.393
257.025
265.745
274.54
283.396
292.297
301.229
310.174
319.119
328.045
336.938
345.78
354.555
363.248
371.854
380.235
388.458
396.525
404.418
412.115
419.596
426.84
433.832
440.551
446.986
453.115
458.926
464.407
469.541
474.316
478.721
482.745
486.377
489.607
492.427
494.826
496.8
498.343
499.45
500.112
500.328
500.099
499.416
498.284
496.699
494.663
492.18
489.248
485.879
482.076
477.849
473.212
468.179
462.773
457.018
450.945
444.583
437.959
431.099
424.03
416.783
409.4
401.92
394.395
386.865
379.384
371.989
364.727
357.616
350.683
343.932
337.362
330.959
324.699
318.55
312.462
306.39
300.282
294.093
287.8
281.381
274.841
268.194
261.47
254.71
247.953
241.247
234.633
228.15
221.843
215.743
209.886
204.3
199.011
194.026
189.342
184.909
35.3048
10.3446
7.65833
6.81445
6.51548
6.46396
6.55212
6.73294
6.98152
7.28354
7.63028
8.01647
8.43876
8.89497
9.38361
9.90384
10.4553
11.0378
11.6519
12.2981
12.9772
13.6905
14.4391
15.2248
16.0486
16.9125
17.8184
18.7694
19.7684
20.818
21.9211
23.0805
24.2993
25.5813
26.93
28.3491
29.8428
31.4153
33.0714
34.8155
36.6528
38.5883
40.6275
42.776
45.0396
47.4241
49.9358
52.5808
55.3661
58.2975
61.3818
64.6255
68.0354
71.6171
75.3774
79.3224
83.4573
87.7875
92.319
97.0553
102
107.159
112.533
118.128
123.942
129.979
136.24
142.724
149.431
156.359
163.504
170.866
178.439
186.217
194.194
202.362
210.717
219.245
227.94
236.79
245.784
254.909
264.153
273.503
282.943
292.459
302.037
311.659
321.309
330.969
340.626
350.258
359.85
369.383
378.842
388.208
397.469
406.619
415.516
424.221
432.737
441.046
449.13
456.963
464.529
471.807
478.782
485.434
491.747
497.707
503.3
508.511
513.326
517.735
521.723
525.284
528.402
531.074
533.285
535.033
536.308
537.107
537.422
537.254
536.594
535.442
533.801
531.666
529.04
525.927
522.327
518.248
513.7
508.688
503.229
497.338
491.04
484.356
477.321
469.961
462.312
454.403
446.264
437.936
429.458
420.88
412.258
403.639
395.091
386.662
378.41
370.374
362.592
355.085
347.861
340.919
334.237
327.788
321.514
315.361
309.261
303.15
296.981
290.714
284.334
277.84
271.253
264.602
257.926
251.27
244.674
238.185
231.848
225.696
219.768
214.094
208.699
203.593
198.773
194.197
34.8079
10.3798
7.68208
6.82531
6.51491
6.45295
6.53145
6.70327
6.94369
7.2386
7.57952
7.96114
8.38007
8.83419
9.3222
9.84345
10.3978
10.9854
11.6068
12.2632
12.9552
13.6842
14.4515
15.2598
16.1113
17.0087
17.9548
18.9522
20.0042
21.1141
22.2857
23.5228
24.8291
26.2096
27.6683
29.2103
30.8406
32.5643
34.3877
36.316
38.3557
40.5129
42.7942
45.2064
47.7565
50.4512
53.298
56.3039
59.4766
62.8231
66.3508
70.0664
73.9779
78.0905
82.4115
86.947
91.7021
96.6815
101.891
107.334
113.012
118.93
125.088
131.489
138.132
145.017
152.143
159.509
167.11
174.944
183.004
191.287
199.783
208.487
217.388
226.478
235.747
245.181
254.769
264.5
274.359
284.332
294.403
304.558
314.78
325.053
335.359
345.682
356.003
366.305
376.57
386.779
396.913
406.957
416.891
426.7
436.37
445.901
455.146
464.161
472.949
481.495
489.779
497.781
505.479
512.855
519.893
526.575
532.885
538.805
544.326
549.428
554.103
558.337
562.118
565.435
568.28
570.64
572.507
573.876
574.739
575.092
574.928
574.24
573.031
571.296
569.038
566.255
562.947
559.119
554.775
549.92
544.565
538.717
532.395
525.614
518.396
510.767
502.76
494.404
485.735
476.785
467.588
458.189
448.631
438.963
429.248
419.541
409.915
400.431
391.162
382.156
373.47
365.145
357.203
349.656
342.491
335.69
329.195
322.945
316.859
310.853
304.854
298.8
292.652
286.393
280.025
273.57
267.057
260.53
254.029
247.601
241.293
235.143
229.192
223.47
218.004
212.808
207.88
203.185
33.8721
10.3137
7.64225
6.78488
6.46942
6.40189
6.47575
6.6438
6.88148
7.17498
7.51608
7.89971
8.32275
8.78328
9.28037
9.81342
10.3825
10.9875
11.6299
12.3115
13.0341
13.7997
14.6109
15.4702
16.3804
17.3447
18.3669
19.4506
20.6003
21.8202
23.1154
24.4909
25.9518
27.5043
29.1542
30.9076
32.7712
34.7518
36.8571
39.0941
41.4706
43.9943
46.6731
49.5154
52.5292
55.7224
59.1035
62.6802
66.461
70.4532
74.6639
79.1004
83.7696
88.6766
93.8274
99.227
104.879
110.786
116.952
123.378
130.064
137.01
144.215
151.678
159.396
167.363
175.578
184.033
192.723
201.64
210.775
220.12
229.665
239.398
249.309
259.384
269.611
279.975
290.462
301.057
311.745
322.51
333.334
344.202
355.095
365.998
376.89
387.755
398.574
409.33
420.004
430.577
441.032
451.352
461.52
471.52
481.342
490.987
500.316
509.371
518.16
526.668
534.877
542.768
550.322
557.521
564.35
570.79
576.827
582.445
587.631
592.372
596.655
600.47
603.803
606.646
608.988
610.819
612.131
612.918
613.171
612.888
612.058
610.683
608.76
606.289
603.267
599.698
595.581
590.923
585.728
580.002
573.756
567.002
559.755
552.033
543.86
535.26
526.269
516.914
507.233
497.26
487.033
476.598
465.998
455.285
444.523
433.77
423.107
412.6
402.332
392.365
382.772
373.612
364.924
356.736
349.05
341.862
335.12
328.763
322.698
316.824
311.045
305.268
299.431
293.493
287.439
281.273
275.018
268.711
262.391
256.102
249.897
243.813
237.894
232.173
226.68
221.431
216.428
211.647
32.6924
10.1366
7.53334
6.69595
6.38882
6.32608
6.40443
6.57799
6.82308
7.12649
7.48054
7.88014
8.32202
8.80519
9.32969
9.89576
10.5044
11.157
11.8551
12.6009
13.3969
14.2462
15.1524
16.1195
17.1516
18.2538
19.4312
20.6893
22.0343
23.4727
25.0113
26.6575
28.4184
30.3028
32.3187
34.4747
36.78
39.2435
41.8751
44.6836
47.6788
50.87
54.2665
57.8778
61.7126
65.7791
70.0856
74.6393
79.4477
84.5163
89.8505
95.4548
101.334
107.488
113.92
120.632
127.621
134.886
142.427
150.237
158.314
166.651
175.243
184.082
193.161
202.469
211.999
221.741
231.684
241.816
252.125
262.6
273.227
283.992
294.881
305.88
316.975
328.148
339.385
350.67
361.987
373.32
384.651
395.964
407.241
418.467
429.624
440.693
451.66
462.507
473.216
483.772
494.157
504.356
514.355
524.139
533.701
543.049
552.05
560.737
569.118
577.183
584.916
592.3
599.318
605.954
612.193
618.019
623.418
628.376
632.88
636.919
640.481
643.555
646.131
648.198
649.747
650.769
651.255
651.203
650.595
649.433
647.716
645.439
642.6
639.198
635.234
630.711
625.63
619.999
613.822
607.109
599.872
592.121
583.876
575.155
565.983
556.384
546.395
536.045
525.371
514.409
503.2
491.79
480.224
468.551
456.837
445.138
433.543
422.118
410.95
400.111
389.687
379.753
370.365
361.568
353.379
345.813
338.831
332.379
326.361
320.661
315.159
309.73
304.289
298.769
293.13
287.361
281.469
275.486
269.443
263.386
257.366
251.424
245.606
239.947
234.48
229.226
224.191
219.358
31.4196
9.90353
7.39203
6.58895
6.30271
6.25735
6.35357
6.54734
6.8153
7.14467
7.52981
7.96711
8.45486
8.99221
9.57934
10.2177
10.9091
11.6563
12.4626
13.3317
14.2681
15.2769
16.3638
17.535
18.7975
20.1587
21.6271
23.211
24.9202
26.7642
28.7539
30.9
33.2133
35.7063
38.39
41.2763
44.377
47.7034
51.2676
55.0796
59.15
63.4882
68.1031
73.0024
78.1926
83.6784
89.4644
95.5529
101.946
108.643
115.642
122.941
130.537
138.422
146.592
155.04
163.755
172.729
181.954
191.416
201.106
211.012
221.121
231.421
241.899
252.542
263.338
274.273
285.334
296.507
307.778
319.135
330.563
342.047
353.576
365.133
376.706
388.278
399.836
411.366
422.852
434.28
445.636
456.904
468.069
479.118
490.036
500.807
511.418
521.854
532.101
542.144
551.969
561.565
570.918
580.016
588.856
597.451
605.683
613.569
621.124
628.337
635.197
641.689
647.798
653.51
658.812
663.689
668.129
672.118
675.645
678.699
681.271
683.348
684.922
685.983
686.521
686.53
685.993