/*--------------------------------*- C++ -*----------------------------------*\
  =========                 |
  \\      /  F ield         | OpenFOAM: The Open Source CFD Toolbox
   \\    /   O peration     | Website:  https://openfoam.org
    \\  /    A nd           | Version:  7
     \\/     M anipulation  |
\*---------------------------------------------------------------------------*/
FoamFile
{
    version     2.0;
    format      ascii;
    class       volScalarField;
    location    "500";
    object      k;
}
// * * * * * * * * * * * * * * * * * * * * * * * * * * * * * * * * * * * * * //

dimensions      [0 2 -2 0 0 0 0];

internalField   nonuniform List<scalar> 
48900
(
0.585486
0.308414
0.266384
0.26813
0.316187
0.388493
0.450072
0.491568
0.516602
0.531495
0.540987
0.547706
0.552975
0.557444
0.561329
0.564687
0.567623
0.570148
0.394163
0.535257
0.532865
0.556121
0.633939
0.735279
0.831265
0.91107
0.974957
1.02668
1.06973
1.10648
1.13831
1.16614
1.19051
1.21173
1.22996
1.24482
0.376427
0.406911
0.414971
0.415555
0.415197
0.417067
0.422415
0.43059
0.441265
0.454254
0.469492
0.486852
0.506106
0.526915
0.548848
0.571383
0.593878
0.615467
0.374642
0.382083
0.386177
0.386891
0.385806
0.383547
0.380972
0.378401
0.375996
0.373807
0.371985
0.370621
0.369809
0.369653
0.370059
0.371127
0.372811
0.375011
0.374397
0.37493
0.376327
0.37657
0.375859
0.374267
0.372168
0.369774
0.36722
0.36459
0.361945
0.359337
0.356805
0.354382
0.352101
0.349977
0.348018
0.346223
0.374429
0.372897
0.372347
0.371858
0.371025
0.369771
0.36818
0.36635
0.364359
0.362267
0.360119
0.357946
0.355778
0.353638
0.351541
0.349505
0.34754
0.345654
0.374436
0.372362
0.370806
0.369604
0.368452
0.367196
0.3658
0.364278
0.362659
0.360971
0.359239
0.357485
0.355727
0.353978
0.352253
0.350562
0.348912
0.347309
0.37443
0.37224
0.37029
0.36862
0.367131
0.365713
0.364306
0.362881
0.361433
0.359965
0.358486
0.357003
0.355526
0.354063
0.35262
0.351204
0.349819
0.348468
0.374425
0.372197
0.370127
0.368238
0.366517
0.364923
0.363416
0.361965
0.360553
0.359169
0.357809
0.356471
0.355157
0.353868
0.352606
0.351373
0.350171
0.348999
0.374421
0.37217
0.370059
0.368087
0.366251
0.364538
0.362931
0.361413
0.359969
0.358586
0.357256
0.355972
0.354731
0.353529
0.352366
0.351238
0.350145
0.349083
0.374419
0.372151
0.370018
0.368012
0.366127
0.364352
0.362682
0.361105
0.359615
0.358201
0.356856
0.355573
0.354347
0.353173
0.352046
0.350964
0.349923
0.348919
0.374417
0.372139
0.36999
0.367967
0.366058
0.364255
0.362552
0.360941
0.359416
0.357972
0.356602
0.355301
0.354063
0.352885
0.35176
0.350686
0.349658
0.348672
0.374416
0.37213
0.369972
0.367937
0.366014
0.364197
0.362476
0.360847
0.359302
0.357838
0.356448
0.355129
0.353876
0.352684
0.351549
0.350468
0.349436
0.348449
0.374415
0.372123
0.369957
0.367912
0.365978
0.364149
0.362416
0.360773
0.359215
0.357735
0.35633
0.354996
0.353727
0.35252
0.351371
0.350276
0.349233
0.348237
0.374414
0.372117
0.369945
0.367892
0.365949
0.364111
0.362368
0.360715
0.359146
0.357656
0.356239
0.354893
0.353611
0.352392
0.35123
0.350123
0.349068
0.34806
0.374413
0.372113
0.369936
0.367876
0.365927
0.364081
0.36233
0.360669
0.359092
0.357593
0.356168
0.354813
0.353522
0.352293
0.351121
0.350005
0.34894
0.347923
0.374413
0.37211
0.36993
0.367866
0.365911
0.364059
0.362302
0.360635
0.359051
0.357546
0.356114
0.354751
0.353454
0.352217
0.351039
0.349915
0.348843
0.347819
0.374413
0.372109
0.369926
0.367859
0.365901
0.364045
0.362284
0.360612
0.359024
0.357513
0.356076
0.354708
0.353406
0.352164
0.35098
0.349851
0.348774
0.347746
0.374413
0.372108
0.369925
0.367857
0.365897
0.364039
0.362276
0.360602
0.359011
0.357498
0.356058
0.354686
0.35338
0.352135
0.350948
0.349816
0.348736
0.347705
0.374413
0.37211
0.369928
0.367861
0.365903
0.364046
0.362284
0.36061
0.359019
0.357506
0.356065
0.354694
0.353387
0.352141
0.350954
0.349821
0.34874
0.347709
0.374414
0.372112
0.369933
0.36787
0.365915
0.364062
0.362303
0.360632
0.359043
0.357532
0.356094
0.354725
0.35342
0.352176
0.350991
0.34986
0.348781
0.347752
0.374415
0.372117
0.369942
0.367885
0.365936
0.364089
0.362336
0.360671
0.359088
0.357583
0.356151
0.354788
0.35349
0.352253
0.351074
0.34995
0.348878
0.347855
0.374416
0.372124
0.369957
0.367909
0.365971
0.364135
0.362396
0.360746
0.359181
0.357695
0.356282
0.354939
0.353659
0.35244
0.351276
0.350165
0.349103
0.348087
0.374419
0.372136
0.369982
0.367951
0.366042
0.364248
0.362561
0.360969
0.359462
0.35803
0.356664
0.355356
0.354102
0.352896
0.351736
0.350618
0.34954
0.348501
0.374421
0.372154
0.370037
0.3681
0.366342
0.364724
0.363206
0.361753
0.360346
0.358972
0.357625
0.356305
0.355011
0.353744
0.352506
0.351297
0.35012
0.348974
0.374403
0.372214
0.370412
0.368993
0.367744
0.366506
0.365208
0.363838
0.362408
0.360938
0.359447
0.357954
0.356469
0.355002
0.35356
0.352147
0.350768
0.349425
0.374341
0.372988
0.372901
0.372809
0.37225
0.371193
0.369771
0.368125
0.366369
0.364572
0.362778
0.361012
0.359288
0.357612
0.35599
0.354425
0.352919
0.351476
0.375444
0.379136
0.383349
0.384297
0.38359
0.381797
0.379746
0.377834
0.3762
0.374881
0.373851
0.373069
0.372504
0.372136
0.371955
0.371976
0.372175
0.372582
0.404618
0.415013
0.420713
0.417851
0.414716
0.415478
0.420688
0.430249
0.442782
0.457155
0.472514
0.488286
0.504131
0.519864
0.535394
0.55068
0.565706
0.58046
0.364331
0.560233
0.522893
0.547595
0.630454
0.743104
0.856852
0.953981
1.02867
1.08279
1.12102
1.14804
1.16749
1.18193
1.19303
1.20187
1.20912
1.21519
0.00133419
0.00361821
0.00736302
0.0105146
0.0132098
0.0156879
0.0181902
0.0207564
0.0234744
0.0263965
0.0295444
0.0329322
0.0365549
0.0404223
0.0445342
0.0488925
0.0535079
0.0583801
0.0635228
0.0689317
0.0746172
0.0805814
0.0868188
0.0933365
0.100139
0.107216
0.114578
0.12223
0.130177
0.138433
0.147008
0.155878
0.165043
0.174504
0.184258
0.194321
0.204679
0.215334
0.22629
0.237532
0.249067
0.260877
0.272952
0.285291
0.297864
0.310655
0.323656
0.336832
0.350191
0.363693
0.377351
0.391127
0.405037
0.419033
0.43312
0.447259
0.461367
0.475404
0.489305
0.502969
0.516357
0.52945
0.542237
0.554717
0.566799
0.578241
0.588535
0.596763
0.601706
0.602398
0.601895
0.601772
0.605386
0.599901
0.5733
0.549692
0.560338
0.567086
0.58025
0.588381
0.603655
0.628323
0.669856
0.647159
0.62179
0.627466
0.625296
0.625987
0.605321
0.606031
0.623594
0.65175
0.650199
0.690612
0.632982
0.64457
0.653736
0.662709
0.671437
0.679915
0.688124
0.696139
0.703956
0.711604
0.718926
0.726066
0.732959
0.73964
0.746063
0.752269
0.7582
0.763972
0.769377
0.774562
0.779505
0.784325
0.788782
0.793027
0.797039
0.800829
0.804389
0.807712
0.81068
0.813532
0.81613
0.818459
0.820496
0.82233
0.823803
0.825145
0.826081
0.826817
0.827002
0.826625
0.82655
0.826662
0.827592
0.832992
0.850433
0.911807
1.09245
1.09173
1.07814
1.08756
1.10144
1.10344
1.09862
1.10851
1.10188
1.09477
1.09434
1.09752
1.10654
1.09722
1.0887
1.08626
1.08347
1.07746
1.06553
1.05174
1.03085
1.00888
0.988344
0.968488
0.953046
0.937901
0.892611
0.860063
0.841804
0.718352
0.688411
0.773377
0.923243
0.797709
0.640101
0.81858
0.848393
0.866833
0.725419
0.768321
0.00436531
0.0245857
0.0361962
0.0449508
0.0525211
0.0594972
0.0662055
0.0728585
0.0795829
0.0864474
0.0934883
0.100721
0.108144
0.115763
0.123578
0.131589
0.139801
0.148217
0.156841
0.165676
0.174725
0.183993
0.193482
0.203194
0.213131
0.223297
0.233701
0.244346
0.255233
0.266369
0.277759
0.289407
0.301316
0.313498
0.32595
0.338677
0.351682
0.364971
0.378541
0.392394
0.406524
0.420935
0.435611
0.450555
0.465746
0.481178
0.496835
0.512703
0.528773
0.545036
0.561484
0.578111
0.594924
0.611908
0.629062
0.646367
0.663809
0.681351
0.698974
0.716658
0.734401
0.752184
0.770016
0.787859
0.805566
0.822958
0.839822
0.856022
0.871629
0.887052
0.902721
0.918501
0.932888
0.944331
0.954663
0.972896
0.996677
1.02359
1.05534
1.07559
1.09446
1.12618
1.15149
1.16367
1.18343
1.20626
1.23725
1.26956
1.28933
1.31378
1.33861
1.35988
1.38989
1.41669
1.43513
1.45779
1.48004
1.50208
1.52374
1.54508
1.56611
1.58679
1.60708
1.62699
1.64653
1.66565
1.68432
1.70261
1.72044
1.73786
1.75482
1.77133
1.78741
1.80305
1.81824
1.83304
1.84737
1.86131
1.87485
1.88798
1.9007
1.91305
1.92496
1.93649
1.94764
1.95838
1.96876
1.97875
1.98833
1.99755
2.00633
2.01469
2.02253
2.02991
2.03681
2.04315
2.04883
2.05346
2.0553
2.04717
2.00324
1.99415
2.00109
1.99347
1.98587
1.98929
1.99646
1.99174
1.99018
1.98565
1.97044
1.94974
1.92535
1.90982
1.89766
1.88585
1.87277
1.85821
1.8429
1.82752
1.81348
1.80031
1.77414
1.74256
1.712
1.67703
1.65393
1.62239
1.5904
1.60403
1.5676
1.53392
1.51124
1.41822
1.38636
1.38918
1.36865
1.34982
1.27394
1.26934
0.00793965
0.041075
0.0565865
0.0679506
0.0777891
0.0869424
0.0958066
0.104608
0.113477
0.122488
0.131676
0.141054
0.150626
0.160391
0.170348
0.180495
0.19084
0.201382
0.212129
0.223084
0.234256
0.245647
0.257261
0.269106
0.28118
0.293498
0.306059
0.31887
0.331938
0.34527
0.358873
0.37275
0.386907
0.401351
0.416091
0.431124
0.446463
0.462104
0.478058
0.49432
0.510892
0.527773
0.54496
0.562444
0.580224
0.598283
0.616616
0.635216
0.654069
0.673165
0.692506
0.712092
0.731934
0.75203
0.772388
0.793026
0.813937
0.835108
0.85654
0.878227
0.900174
0.922407
0.94496
0.967827
0.991008
1.01442
1.03802
1.0618
1.08591
1.11061
1.13607
1.16219
1.18846
1.21463
1.24129
1.26963
1.29937
1.3301
1.36101
1.38998
1.42023
1.45185
1.48182
1.51028
1.54008
1.57119
1.60347
1.63497
1.66482
1.69488
1.72505
1.75548
1.78615
1.81597
1.84487
1.87363
1.90196
1.92994
1.95731
1.98438
2.01105
2.03726
2.06301
2.08824
2.11296
2.13714
2.16074
2.18378
2.20623
2.22809
2.24936
2.27002
2.29008
2.30953
2.32838
2.34662
2.36428
2.38135
2.39781
2.41372
2.42904
2.44381
2.45801
2.47164
2.48474
2.49728
2.5093
2.52077
2.53173
2.54215
2.55202
2.56133
2.57006
2.57814
2.58555
2.5922
2.59794
2.6024
2.60449
2.6012
2.58998
2.58948
2.59115
2.59098
2.59033
2.59096
2.59157
2.58905
2.58482
2.57764
2.56582
2.55027
2.53221
2.51518
2.49808
2.47944
2.45843
2.43492
2.40934
2.38235
2.35425
2.32306
2.28713
2.24692
2.20507
2.16101
2.12258
2.07962
2.03625
2.00997
1.96767
1.91991
1.87232
1.81028
1.77452
1.74136
1.70583
1.66974
1.61785
1.58929
0.011725
0.056213
0.0752745
0.0889109
0.100553
0.111291
0.12163
0.131849
0.142114
0.152516
0.163109
0.173909
0.184925
0.196156
0.207598
0.219252
0.231118
0.243195
0.25549
0.268006
0.280749
0.293724
0.306938
0.320396
0.334101
0.348065
0.362291
0.37679
0.391563
0.406617
0.421963
0.437607
0.453554
0.469814
0.486395
0.503298
0.520531
0.5381
0.556011
0.574265
0.592866
0.611816
0.631112
0.65076
0.670748
0.691075
0.71174
0.732734
0.754053
0.775691
0.797653
0.819942
0.842569
0.86555
0.888901
0.912644
0.936794
0.961357
0.986358
1.01179
1.03767
1.06403
1.0909
1.1183
1.14624
1.17472
1.20372
1.23323
1.26332
1.29409
1.32559
1.35776
1.39038
1.42328
1.45649
1.49016
1.52432
1.55885
1.59358
1.6284
1.6637
1.69925
1.73467
1.77
1.80557
1.84136
1.87722
1.91281
1.94814
1.98348
2.01882
2.05403
2.08896
2.12349
2.15763
2.19137
2.22464
2.25745
2.28954
2.32121
2.35239
2.38306
2.41312
2.44259
2.4714
2.49953
2.52699
2.55373
2.57974
2.605
2.6295
2.65323
2.67619
2.69838
2.71979
2.74042
2.76028
2.77937
2.79768
2.81524
2.83204
2.8481
2.86341
2.878
2.89185
2.90499
2.91743
2.92916
2.94023
2.95061
2.9603
2.9693
2.97757
2.98511
2.99188
2.99779
3.00282
3.00689
3.00982
3.01116
3.0113
3.01291
3.0135
3.01348
3.01298
3.01178
3.00973
3.00587
2.99963
2.99101
2.9797
2.96553
2.94881
2.93015
2.90941
2.88623
2.86014
2.83104
2.79892
2.76412
2.72694
2.68658
2.64298
2.59659
2.54813
2.49785
2.44849
2.39744
2.3459
2.2993
2.24868
2.19566
2.14311
2.08861
2.04242
1.99867
1.95584
1.91336
1.86811
1.83007
0.0154333
0.0699914
0.0923352
0.108083
0.121354
0.133457
0.145001
0.156326
0.167635
0.179053
0.19065
0.202466
0.214516
0.226807
0.239336
0.252105
0.26511
0.278352
0.291834
0.305559
0.31953
0.333754
0.348233
0.362979
0.377994
0.393286
0.408865
0.42473
0.440896
0.457367
0.474153
0.491262
0.508697
0.526474
0.544595
0.563067
0.581901
0.601104
0.620682
0.640638
0.660983
0.681717
0.702845
0.724374
0.746304
0.768632
0.791365
0.814497
0.838038
0.86198
0.886332
0.911106
0.936314
0.961967
0.988101
1.01473
1.04189
1.06959
1.09785
1.12669
1.15612
1.18617
1.21685
1.24819
1.2802
1.31285
1.34615
1.38009
1.41465
1.44986
1.48571
1.52217
1.55916
1.59656
1.63434
1.67249
1.71099
1.74982
1.78894
1.82836
1.8681
1.9081
1.94827
1.98855
2.02894
2.06936
2.10973
2.15002
2.19019
2.2303
2.27028
2.31005
2.34953
2.38867
2.42747
2.46582
2.50365
2.54098
2.57745
2.6134
2.64879
2.68355
2.71763
2.75097
2.78354
2.81531
2.84624
2.87631
2.90548
2.93375
2.96108
2.98748
3.0129
3.03739
3.06088
3.08341
3.10495
3.12554
3.14513
3.16377
3.18144
3.19817
3.21393
3.22878
3.24269
3.25569
3.26781
3.27903
3.28941
3.29891
3.30757
3.31538
3.32233
3.32842
3.33362
3.33792
3.3413
3.34384
3.34566
3.34691
3.34768
3.3479
3.34671
3.34473
3.34214
3.33864
3.33404
3.32785
3.31948
3.30897
3.29625
3.28101
3.26313
3.24255
3.21923
3.19304
3.16374
3.13118
3.09524
3.05611
3.01406
2.96884
2.92067
2.87
2.81722
2.76266
2.70736
2.65119
2.59468
2.53932
2.48304
2.42654
2.37124
2.31669
2.26522
2.21602
2.16857
2.12287
2.07826
2.03645
0.0188891
0.0822569
0.107549
0.125227
0.139989
0.153325
0.165931
0.178198
0.190366
0.202589
0.214965
0.227548
0.240373
0.253455
0.2668
0.280409
0.294283
0.308423
0.322828
0.337502
0.352447
0.367668
0.383171
0.398959
0.41504
0.43142
0.448107
0.465108
0.48243
0.500081
0.518071
0.536408
0.555099
0.574157
0.593588
0.613402
0.633608
0.654213
0.675231
0.696667
0.718529
0.740828
0.763566
0.786757
0.810405
0.834516
0.859099
0.884156
0.909698
0.93573
0.962263
0.989307
1.01688
1.04501
1.0737
1.103
1.13291
1.16347
1.1947
1.22661
1.25922
1.29255
1.3266
1.36138
1.3969
1.43315
1.47011
1.50776
1.54608
1.58507
1.62469
1.66493
1.70576
1.7471
1.78893
1.8312
1.8739
1.91698
1.96041
2.00419
2.0483
2.0927
2.13733
2.18215
2.22708
2.27206
2.31705
2.36198
2.40684
2.45157
2.49615
2.54049
2.58454
2.62826
2.67159
2.71444
2.75674
2.79847
2.83924
2.8794
2.91889
2.95765
2.99561
3.03272
3.06892
3.10417
3.13843
3.17167
3.20385
3.23494
3.2649
3.29373
3.3214
3.34791
3.37322
3.39735
3.42026
3.44198
3.4625
3.48181
3.49994
3.51688
3.53264
3.54724
3.56069
3.573
3.58419
3.59429
3.60331
3.61127
3.6182
3.62411
3.62897
3.63284
3.63568
3.63751
3.63837
3.63834
3.63762
3.63639
3.63459
3.63194
3.62806
3.62329
3.61779
3.61141
3.60393
3.59504
3.5843
3.57164
3.55698
3.54003
3.52054
3.49832
3.47325
3.4452
3.41399
3.37944
3.34143
3.30004
3.25544
3.20765
3.15687
3.10349
3.0479
2.99049
2.93186
2.87244
2.81271
2.75311
2.69337
2.63415
2.57631
2.51982
2.46527
2.41275
2.36238
2.31438
2.26865
2.22471
0.0219788
0.092911
0.120774
0.140168
0.156271
0.170719
0.184278
0.197379
0.210294
0.223199
0.236213
0.249411
0.262843
0.276534
0.290503
0.304756
0.319297
0.334127
0.34925
0.364667
0.380381
0.396396
0.412714
0.429343
0.446288
0.463554
0.481152
0.499084
0.517363
0.535995
0.554992
0.57436
0.594107
0.614251
0.634796
0.655755
0.677137
0.698952
0.721218
0.743939
0.767129
0.790798
0.81496
0.839623
0.864803
0.890503
0.916744
0.943531
0.970879
0.998803
1.02731
1.05642
1.08616
1.11654
1.14758
1.17931
1.21175
1.24492
1.27885
1.31355
1.34904
1.38532
1.4224
1.46028
1.49897
1.53845
1.57872
1.61974
1.66151
1.704
1.74718
1.79104
1.83554
1.88066
1.92636
1.97259
2.01933
2.06654
2.11418
2.16222
2.21063
2.25938
2.30839
2.35764
2.40705
2.45655
2.50611
2.55565
2.60512
2.65448
2.70366
2.75261
2.80124
2.84952
2.89737
2.94472
2.99146
3.03758
3.08263
3.12696
3.17053
3.21326
3.25508
3.29592
3.3357
3.37438
3.41191
3.44824
3.48333
3.51714
3.54962
3.58075
3.61053
3.63889
3.66585
3.69136
3.71544
3.73807
3.75922
3.77894
3.7972
3.81404
3.82941
3.84339
3.85594
3.86712
3.87692
3.88538
3.89253
3.89838
3.90298
3.90634
3.90848
3.90944
3.90918
3.9078
3.90535
3.90194
3.89774
3.89291
3.88745
3.88113
3.87381
3.86559
3.85665
3.84693
3.83627
3.82445
3.81115
3.79625
3.77962
3.761
3.74012
3.71676
3.69069
3.66175
3.62971
3.59439
3.55562
3.5134
3.46784
3.41897
3.367
3.31225
3.25515
3.19608
3.13557
3.07417
3.01234
2.95037
2.88846
2.82717
2.76717
2.70864
2.65189
2.59719
2.5448
2.49501
2.44781
2.40226
0.0246302
0.101926
0.131968
0.152841
0.170116
0.185548
0.199955
0.213798
0.227372
0.24087
0.254428
0.268137
0.282059
0.296235
0.310689
0.325436
0.340488
0.355849
0.371521
0.387511
0.403821
0.420453
0.437412
0.454707
0.472338
0.490314
0.508644
0.527334
0.546392
0.565828
0.585652
0.605874
0.626502
0.647554
0.669037
0.690964
0.713349
0.736201
0.75954
0.783375
0.80772
0.832593
0.858005
0.883973
0.910511
0.937636
0.965361
0.993704
1.02269
1.05232
1.08262
1.11361
1.14532
1.17775
1.21093
1.2449
1.27966
1.31523
1.35165
1.38892
1.42705
1.46606
1.50595
1.54671
1.58836
1.63086
1.67424
1.71846
1.7635
1.80935
1.85598
1.90337
1.95149
2.0003
2.04978
2.0999
2.1506
2.20186
2.25363
2.30586
2.35854
2.41159
2.46497
2.51862
2.57248
2.62649
2.68059
2.73471
2.78878
2.84274
2.89653
2.95008
3.0033
3.05614
3.10852
3.16034
3.21152
3.26201
3.31136
3.35984
3.40748
3.45417
3.49982
3.54435
3.58769
3.62977
3.67052
3.70989
3.74783
3.78428
3.81922
3.85258
3.88434
3.91445
3.94291
3.96969
3.99476
4.01811
4.03974
4.05964
4.07782
4.09428
4.109
4.12204
4.13338
4.14307
4.15112
4.15754
4.16239
4.16567
4.16745
4.16775
4.16659
4.16403
4.1601
4.15488
4.14845
4.14094
4.13255
4.12343
4.11361
4.103
4.09152
4.07928
4.0664
4.05291
4.03873
4.02371
4.00765
3.9904
3.97184
3.95173
3.92979
3.90576
3.87935
3.85033
3.81841
3.78339
3.74499
3.70316
3.6579
3.60923
3.55733
3.50245
3.44498
3.38536
3.32409
3.26171
3.1987
3.13542
3.07217
3.00947
2.9479
2.88777
2.82941
2.77315
2.71929
2.66808
2.61951
2.57258
0.0268061
0.109329
0.141162
0.163268
0.181531
0.197807
0.21295
0.227443
0.241592
0.255608
0.269633
0.283771
0.298096
0.312658
0.32749
0.342619
0.358056
0.373813
0.389898
0.406316
0.423072
0.440171
0.457617
0.475419
0.493578
0.512104
0.531007
0.55029
0.569966
0.590043
0.610533
0.631448
0.652794
0.674593
0.696852
0.719589
0.742815
0.766545
0.790802
0.815593
0.840942
0.866862
0.893371
0.920492
0.94824
0.976635
1.0057
1.03544
1.0659
1.09709
1.12903
1.16174
1.19525
1.22957
1.26474
1.30077
1.33768
1.3755
1.41424
1.45392
1.49455
1.53612
1.57867
1.62218
1.66665
1.71207
1.75845
1.80576
1.85399
1.90312
1.95312
2.00398
2.05566
2.10812
2.16135
2.21529
2.26991
2.32517
2.38101
2.4374
2.49429
2.55162
2.60934
2.66737
2.72566
2.78415
2.84276
2.90142
2.96006
3.01859
3.07695
3.13507
3.19284
3.2502
3.30707
3.36333
3.41893
3.47375
3.52733
3.57996
3.63162
3.68221
3.73165
3.77983
3.82666
3.87208
3.91601
3.95837
3.99909
4.03812
4.07542
4.11092
4.14459
4.17637
4.20623
4.23414
4.26008
4.28404
4.30597
4.32591
4.34382
4.35972
4.37359
4.38548
4.39538
4.40331
4.40931
4.41338
4.4156
4.41596
4.41453
4.41135
4.40646
4.39994
4.39183
4.38225
4.37128
4.3591
4.34592
4.3319
4.31713
4.30163
4.28539
4.26852
4.25117
4.23345
4.21534
4.19678
4.17766
4.15788
4.13732
4.11577
4.09296
4.0686
4.04236
4.01392
3.98293
3.9491
3.91211
3.87177
3.82798
3.78069
3.73004
3.67619
3.61952
3.56044
3.49943
3.43704
3.37375
3.30998
3.24612
3.18268
3.12019
3.05902
2.99959
2.94224
2.88729
2.83498
2.78523
2.73713
0.0284924
0.11518
0.14843
0.171527
0.190596
0.207568
0.223325
0.238365
0.253004
0.267456
0.281874
0.296369
0.31102
0.325886
0.341009
0.35642
0.372139
0.388181
0.404558
0.42128
0.438353
0.455783
0.473578
0.491745
0.510289
0.52922
0.548547
0.568277
0.588421
0.60899
0.629997
0.651453
0.673371
0.695769
0.718659
0.742058
0.765983
0.790449
0.815481
0.841092
0.867305
0.894138
0.921614
0.949755
0.978585
1.00812
1.0384
1.06942
1.10124
1.13386
1.16731
1.20161
1.2368
1.2729
1.30992
1.3479
1.38685
1.4268
1.46776
1.50974
1.55276
1.59682
1.64194
1.68812
1.73535
1.78363
1.83295
1.8833
1.93467
1.98705
2.04038
2.09467
2.14988
2.20596
2.26289
2.32063
2.37913
2.43835
2.49824
2.55873
2.6198
2.68136
2.74336
2.80574
2.8684
2.9313
2.99436
3.05749
3.1206
3.18363
3.24648
3.30907
3.3713
3.43308
3.49434
3.55496
3.61485
3.6739
3.73162
3.78828
3.84386
3.89827
3.95138
4.00311
4.05334
4.10198
4.14897
4.19421
4.23762
4.27914
4.31869
4.35623
4.39168
4.42501
4.45616
4.48511
4.51181
4.53624
4.55838
4.5782
4.5957
4.61091
4.62378
4.63435
4.64262
4.64862
4.65236
4.65388
4.65322
4.6504
4.64549
4.63854
4.62961
4.61878
4.60612
4.59175
4.57583
4.55852
4.54006
4.52064
4.50043
4.47949
4.45792
4.43587
4.41351
4.39103
4.36849
4.34594
4.32335
4.30069
4.27791
4.25481
4.23114
4.20661
4.18083
4.15344
4.12401
4.09215
4.05744
4.0196
3.97836
3.9336
3.88534
3.8337
3.77896
3.7215
3.6618
3.60037
3.5377
3.47429
3.41058
3.34707
3.2843
3.2227
3.1627
3.1047
3.04904
2.9959
2.94524
2.89618
0.0296994
0.119564
0.153882
0.177736
0.197429
0.214946
0.231191
0.246669
0.261702
0.276507
0.291239
0.306013
0.320915
0.336009
0.351341
0.366948
0.382856
0.399085
0.41565
0.432565
0.449838
0.46748
0.485499
0.503905
0.522703
0.541906
0.561524
0.581565
0.602043
0.622968
0.644357
0.666223
0.688577
0.711444
0.734835
0.75877
0.783268
0.808348
0.834037
0.86035
0.887315
0.914952
0.943289
0.972351
1.00216
1.03275
1.06414
1.09636
1.12945
1.16342
1.1983
1.23413
1.27093
1.30872
1.34754
1.3874
1.42833
1.47035
1.51348
1.55773
1.60311
1.64963
1.6973
1.74612
1.7961
1.84722
1.89948
1.95287
2.00738
2.06298
2.11965
2.17736
2.23607
2.29576
2.35637
2.41788
2.48023
2.54336
2.60723
2.67178
2.73695
2.80267
2.86887
2.93548
3.00242
3.06962
3.13699
3.20444
3.27189
3.33926
3.40642
3.47332
3.53983
3.60586
3.67131
3.73608
3.80007
3.86316
3.92483
3.98532
4.04462
4.10263
4.15924
4.21431
4.26774
4.31944
4.3693
4.41723
4.46315
4.50698
4.54863
4.58803
4.62513
4.65987
4.69216
4.722
4.74931
4.7741
4.79627
4.81587
4.83286
4.84723
4.85896
4.86808
4.87459
4.87852
4.87988
4.87869
4.87499
4.86883
4.86027
4.84936
4.83618
4.82082
4.80336
4.78396
4.76279
4.74003
4.71595
4.69077
4.66471
4.6379
4.61052
4.58277
4.55489
4.52711
4.49962
4.47253
4.44597
4.41997
4.39456
4.36959
4.34486
4.32009
4.29487
4.26878
4.24133
4.21204
4.18036
4.14588
4.1082
4.06704
4.02231
3.97402
3.92236
3.86763
3.8103
3.75085
3.68976
3.62759
3.56482
3.50197
3.4396
3.37816
3.31813
3.25994
3.20392
3.15029
3.09898
3.04922
0.0304485
0.122577
0.157641
0.182034
0.202176
0.220089
0.236692
0.252495
0.267819
0.282884
0.297845
0.312819
0.327894
0.343137
0.358599
0.374321
0.390332
0.406657
0.423316
0.440324
0.457695
0.475442
0.493574
0.512105
0.531043
0.550401
0.570192
0.590426
0.611118
0.632282
0.653936
0.676096
0.698776
0.722001
0.745788
0.770156
0.795129
0.820728
0.846984
0.873916
0.901554
0.929924
0.959054
0.988976
1.01972
1.05131
1.08378
1.11715
1.15148
1.18677
1.22308
1.26041
1.29881
1.3383
1.37891
1.42067
1.46359
1.5077
1.55303
1.59957
1.64734
1.69635
1.74662
1.79813
1.8509
1.9049
1.96015
2.01662
2.07429
2.13315
2.19316
2.2543
2.31653
2.3798
2.44408
2.50932
2.57546
2.64245
2.71022
2.77872
2.84788
2.91762
2.98788
3.05857
3.12959
3.2009
3.27237
3.34392
3.41546
3.48689
3.55812
3.62902
3.69951
3.76948
3.83882
3.90743
3.97518
4.04199
4.10728
4.17128
4.23398
4.29528
4.35504
4.41314
4.46947
4.5239
4.57635
4.62669
4.67485
4.72071
4.76419
4.80523
4.84373
4.87963
4.91287
4.94339
4.97114
4.99608
5.01815
5.03736
5.05366
5.06706
5.07753
5.08509
5.08973
5.09148
5.09035
5.08636
5.07954
5.06994
5.05763
5.04267
5.02514
5.00514
4.98279
4.95824
4.93167
4.9033
4.87341
4.84225
4.81007
4.7771
4.74355
4.70971
4.67585
4.64229
4.60932
4.57716
4.54606
4.51615
4.48756
4.46024
4.43406
4.40877
4.38398
4.35923
4.33398
4.30764
4.27957
4.24919
4.21594
4.1794
4.1393
4.09548
4.04805
3.9972
3.94334
3.88692
3.82843
3.76843
3.70745
3.64604
3.58477
3.52414
3.46465
3.40675
3.3508
3.29703
3.24538
3.19521
0.0307613
0.124325
0.159838
0.184567
0.204994
0.22316
0.239992
0.256002
0.271511
0.286737
0.301836
0.316924
0.33209
0.347404
0.362917
0.378674
0.394708
0.411047
0.427713
0.444727
0.462104
0.479861
0.498011
0.516571
0.53555
0.554965
0.574831
0.595159
0.615971
0.63728
0.65911
0.681478
0.704402
0.72791
0.75202
0.776755
0.802143
0.828208
0.854987
0.882501
0.910784
0.939867
0.969782
1.00056
1.03224
1.06485
1.09843
1.133
1.16862
1.20529
1.24307
1.28199
1.32207
1.36335
1.40584
1.4496
1.49462
1.54093
1.58856
1.63751
1.6878
1.73942
1.7924
1.84672
1.90238
1.95938
2.0177
2.07732
2.13824
2.20041
2.26381
2.3284
2.39415
2.46099
2.52889
2.59779
2.66765
2.73838
2.80991
2.8822
2.95517
3.02873
3.1028
3.17729
3.25212
3.32721
3.40245
3.47774
3.55299
3.6281
3.70294
3.77744
3.85146
3.9249
3.99766
4.06961
4.14065
4.21068
4.2791
4.34612
4.41174
4.47584
4.53829
4.59895
4.65771
4.71444
4.76902
4.82136
4.87132
4.91883
4.96378
5.00608
5.04564
5.08239
5.11626
5.14717
5.17508
5.19993
5.22166
5.24026
5.25569
5.26795
5.27699
5.28283
5.28549
5.28496
5.28126
5.27438
5.26438
5.25132
5.23522
5.2162
5.19432
5.16969
5.14244
5.11273
5.08077
5.04678
5.01105
4.97385
4.93548
4.8962
4.85631
4.81611
4.77598
4.73628
4.6974
4.65968
4.62349
4.58908
4.55672
4.52646
4.49829
4.47203
4.44733
4.42374
4.40068
4.37749
4.35341
4.3277
4.29965
4.26863
4.23417
4.19595
4.15388
4.10808
4.05883
4.00655
3.95172
3.89489
3.83662
3.77748
3.71808
3.65895
3.60062
3.54355
3.48814
3.43463
3.38301
3.33278
0.0306875
0.124903
0.160601
0.185483
0.206041
0.224323
0.241259
0.257361
0.272947
0.288234
0.303377
0.318491
0.333665
0.348968
0.364455
0.380171
0.396152
0.412429
0.429028
0.44597
0.463278
0.480969
0.499061
0.517573
0.536519
0.555918
0.575789
0.596148
0.617017
0.638417
0.660373
0.682908
0.706041
0.729806
0.754222
0.779312
0.805114
0.831656
0.858978
0.887109
0.916087
0.945947
0.976725
1.00846
1.04118
1.07493
1.10975
1.14567
1.18273
1.22096
1.26041
1.3011
1.34307
1.38634
1.43094
1.47691
1.52426
1.573
1.62317
1.67476
1.72778
1.78223
1.83812
1.89545
1.95419
2.01434
2.07588
2.13879
2.20304
2.2686
2.33543
2.40349
2.47273
2.54309
2.61453
2.68698
2.76038
2.83465
2.90972
2.98553
3.06199
3.13902
3.21652
3.29442
3.3726
3.451
3.52949
3.60799
3.68638
3.76456
3.84244
3.91987
3.99678
4.07303
4.14852
4.22314
4.29677
4.36933
4.4402
4.50957
4.57742
4.64364
4.70811
4.77069
4.83124
4.88963
4.94576
4.99948
5.0507
5.0993
5.14519
5.18825
5.2284
5.26556
5.29962
5.33054
5.35822
5.38265
5.40371
5.42142
5.43571
5.44658
5.45398
5.45794
5.45845
5.45553
5.44913
5.4393
5.42608
5.40952
5.38966
5.3666
5.34043
5.31124
5.27919
5.24445
5.20721
5.16772
5.12627
5.08314
5.03867
4.99315
4.94691
4.90034
4.85382
4.8078
4.76277
4.71915
4.67744
4.63802
4.60131
4.56751
4.53674
4.50895
4.48387
4.46108
4.44001
4.41995
4.40003
4.37939
4.35712
4.33243
4.30457
4.273
4.23744
4.19785
4.15439
4.10741
4.05734
4.00474
3.95015
3.89419
3.8375
3.78062
3.72412
3.66849
3.61415
3.56138
3.51022
3.46028
0.0302578
0.1245
0.160122
0.184972
0.205509
0.223773
0.24069
0.256767
0.272323
0.287571
0.302664
0.317717
0.332817
0.348034
0.363423
0.379031
0.394896
0.41105
0.427522
0.444338
0.461522
0.479096
0.497082
0.515502
0.534374
0.553723
0.573572
0.593941
0.614859
0.636349
0.658442
0.681164
0.704542
0.728613
0.753402
0.778938
0.805253
0.832384
0.860376
0.889275
0.919123
0.949957
0.981816
1.01474
1.04877
1.08394
1.1203
1.15788
1.19672
1.23686
1.27833
1.32117
1.36541
1.41106
1.45817
1.50675
1.55682
1.60838
1.66146
1.71605
1.77215
1.82976
1.88887
1.94948
2.01155
2.07506
2.14
2.20632
2.274
2.34299
2.41325
2.48472
2.55735
2.63109
2.70585
2.78159
2.85823
2.93569
3.01389
3.09275
3.1722
3.25215
3.33248
3.41314
3.494
3.57499
3.65598
3.7369
3.81762
3.89804
3.97807
4.05758
4.13646
4.21461
4.29191
4.36826
4.44355
4.51771
4.5901
4.66089
4.73007
4.79753
4.86314
4.92676
4.98826
5.0475
5.10437
5.15872
5.21046
5.25944
5.30558
5.34875
5.38886
5.42583
5.45955
5.48994
5.51694
5.54046
5.56045
5.57687
5.58968
5.59884
5.60433
5.60616
5.60436
5.59884
5.58963
5.57676
5.56025
5.54017
5.51658
5.48954
5.45916
5.42554
5.38885
5.34926
5.30696
5.2622
5.21528
5.16649
5.11618
5.06467
5.01231
4.95954
4.90677
4.85452
4.80333
4.75366
4.70611
4.66127
4.61971
4.58181
4.54785
4.51791
4.49187
4.46943
4.45002
4.43293
4.41724
4.40199
4.38603
4.3684
4.348
4.32408
4.29614
4.26393
4.22744
4.18695
4.14281
4.09553
4.04569
3.9939
3.94081
3.887
3.83308
3.77955
3.72689
3.67539
3.62517
3.57596
0.0294463
0.123001
0.158327
0.182992
0.203374
0.221496
0.238277
0.254223
0.269648
0.284763
0.299721
0.314633
0.329587
0.344654
0.359887
0.375336
0.39104
0.407033
0.423348
0.440013
0.457057
0.474505
0.492384
0.510723
0.529545
0.548881
0.568759
0.589208
0.610259
0.631945
0.6543
0.677359
0.701154
0.72573
0.751118
0.777358
0.804491
0.832541
0.861553
0.891598
0.922733
0.954992
0.988415
1.02305
1.05893
1.0961
1.1346
1.17446
1.21573
1.25844
1.30262
1.34829
1.39548
1.44421
1.4945
1.54635
1.59978
1.65478
1.71136
1.7695
1.8292
1.89043
1.95318
2.01741
2.0831
2.15021
2.21871
2.28854
2.35967
2.43205
2.5056
2.58029
2.65604
2.73279
2.81047
2.889
2.96832
3.04833
3.12896
3.21013
3.29176
3.37375
3.45601
3.53846
3.62099
3.70351
3.78593
3.86814
3.95005
4.03155
4.11254
4.19291
4.27256
4.35137
4.42926
4.50611
4.58183
4.65635
4.72907
4.8001
4.86943
4.93698
5.0026
5.06617
5.12754
5.18659
5.24318
5.29719
5.34849
5.39696
5.44248
5.48494
5.52423
5.56026
5.59292
5.62212
5.64779
5.66985
5.68821
5.70285
5.71371
5.72075
5.72395
5.72337
5.71891
5.71055
5.69832
5.68223
5.66233
5.63867
5.6113
5.58031
5.54579
5.50787
5.4667
5.42245
5.37535
5.32561
5.27353
5.21942
5.16363
5.10644
5.04827
4.98958
4.93091
4.87274
4.81564
4.76019
4.70705
4.65688
4.61035
4.56803
4.53041
4.4978
4.47026
4.44764
4.42947
4.41507
4.40344
4.39347
4.38394
4.37384
4.36174
4.34655
4.32741
4.30376
4.27546
4.24267
4.20567
4.1649
4.12091
4.07433
4.02581
3.97596
3.92541
3.87473
3.82439
3.77475
3.72599
3.67798
0.0284243
0.120553
0.155343
0.179658
0.199753
0.217619
0.234161
0.249882
0.265091
0.279999
0.294756
0.309473
0.324238
0.33912
0.354176
0.369456
0.385
0.400848
0.417036
0.433597
0.450566
0.467973
0.485853
0.504242
0.52317
0.542677
0.5628
0.583576
0.605048
0.627255
0.650242
0.674052
0.698731
0.724319
0.750843
0.778352
0.806924
0.836614
0.867486
0.899571
0.932913
0.96756
1.00356
1.04095
1.07978
1.12007
1.16186
1.20518
1.25007
1.29653
1.34458
1.39424
1.44551
1.4984
1.5529
1.60901
1.6667
1.72597
1.7868
1.84915
1.91299
1.97829
2.04501
2.1131
2.18253
2.25323
2.32517
2.39829
2.47252
2.54782
2.62411
2.70134
2.77944
2.85833
2.93796
3.01824
3.0991
3.18047
3.26226
3.3444
3.42681
3.50941
3.5921
3.6748
3.75743
3.8399
3.92212
4.00399
4.08543
4.16634
4.24662
4.32618
4.40492
4.48275
4.55956
4.63527
4.7098
4.78309
4.85457