/*--------------------------------*- C++ -*----------------------------------*\
  =========                 |
  \\      /  F ield         | OpenFOAM: The Open Source CFD Toolbox
   \\    /   O peration     | Website:  https://openfoam.org
    \\  /    A nd           | Version:  7
     \\/     M anipulation  |
\*---------------------------------------------------------------------------*/
FoamFile
{
    version     2.0;
    format      ascii;
    class       volScalarField;
    location    "500";
    object      nut;
}
// * * * * * * * * * * * * * * * * * * * * * * * * * * * * * * * * * * * * * //

dimensions      [0 2 -1 0 0 0 0];

internalField   nonuniform List<scalar> 
48900
(
0.000143044
8.81827e-06
7.61639e-06
7.66636e-06
9.04023e-06
1.11076e-05
1.28683e-05
1.40547e-05
1.47705e-05
1.51963e-05
1.54675e-05
1.56597e-05
1.58104e-05
1.59382e-05
1.60493e-05
1.61455e-05
1.62346e-05
1.63396e-05
0.000681284
0.000121994
8.83066e-05
6.77966e-05
5.89191e-05
5.56286e-05
5.49949e-05
5.55642e-05
5.6689e-05
5.80992e-05
5.96718e-05
6.13166e-05
6.29917e-05
6.46624e-05
6.63031e-05
6.78928e-05
6.94269e-05
7.09195e-05
0.000867789
0.000386083
0.000257672
0.000195576
0.000155468
0.000126014
0.000104826
8.99922e-05
7.9868e-05
7.3078e-05
6.86451e-05
6.58845e-05
6.43297e-05
6.36549e-05
6.3628e-05
6.4075e-05
6.48566e-05
6.58911e-05
0.000860694
0.00070197
0.000532841
0.000427816
0.000358015
0.000306374
0.000265934
0.000233437
0.000207141
0.000185763
0.000168351
0.000154091
0.000142352
0.000132665
0.000124559
0.000117823
0.000112239
0.000107762
0.000853381
0.00082603
0.000740108
0.000651303
0.000577882
0.000518221
0.000469159
0.000428024
0.000393092
0.000363203
0.000337499
0.000315297
0.000296036
0.00027925
0.000264575
0.000251716
0.000240451
0.000230737
0.000852143
0.000848472
0.000827085
0.000784088
0.000735756
0.000688992
0.000646192
0.00060772
0.000573316
0.000542589
0.000515141
0.00049061
0.000468667
0.000449023
0.000431423
0.000415669
0.000401613
0.000389217
0.000851903
0.000851686
0.00084759
0.000835987
0.00081518
0.000789828
0.000762756
0.000735697
0.000709565
0.000684807
0.000661619
0.000640056
0.000620102
0.0006017
0.000584784
0.000569288
0.000555177
0.000542494
0.000851894
0.000851667
0.00085119
0.000848809
0.000842983
0.000833716
0.000821267
0.000807036
0.00079176
0.000776101
0.000760474
0.000745171
0.000730382
0.000716231
0.000702795
0.000690128
0.000678288
0.00066739
0.000851893
0.000851573
0.000851342
0.000850935
0.000849774
0.000847294
0.000843213
0.000837687
0.000830895
0.000823225
0.000814902
0.000806188
0.000797312
0.000788406
0.000779601
0.000770996
0.000762683
0.00075478
0.000851891
0.000851539
0.000851242
0.000850996
0.000850695
0.000850133
0.000849101
0.00084747
0.000845178
0.000842275
0.000838821
0.000834895
0.000830632
0.000826099
0.000821391
0.000816585
0.000811746
0.000806892
0.000851888
0.000851516
0.000851184
0.000850896
0.000850642
0.000850385
0.000850063
0.000849604
0.000848948
0.000848051
0.000846898
0.00084549
0.000843843
0.000841985
0.000839946
0.000837761
0.00083547
0.000833134
0.000851886
0.000851499
0.000851148
0.000850832
0.000850548
0.00085029
0.000850046
0.000849797
0.000849519
0.000849188
0.000848783
0.00084829
0.000847701
0.000847012
0.000846227
0.000845351
0.000844398
0.000843385
0.000851885
0.000851488
0.000851124
0.000850792
0.000850488
0.00085021
0.000849953
0.000849714
0.000849485
0.000849258
0.000849025
0.000848776
0.000848505
0.000848204
0.00084787
0.0008475
0.000847094
0.000846655
0.000851883
0.000851479
0.000851104
0.000850759
0.000850441
0.000850146
0.000849872
0.000849616
0.000849377
0.000849153
0.00084894
0.000848736
0.000848538
0.000848342
0.000848147
0.000847948
0.000847744
0.000847533
0.000851882
0.000851472
0.000851088
0.000850733
0.000850403
0.000850096
0.000849808
0.000849539
0.000849285
0.000849047
0.000848822
0.000848609
0.000848407
0.000848216
0.000848033
0.000847857
0.000847688
0.000847523
0.000851881
0.000851466
0.000851077
0.000850713
0.000850374
0.000850057
0.00084976
0.00084948
0.000849216
0.000848966
0.000848729
0.000848504
0.00084829
0.000848086
0.000847892
0.000847707
0.000847529
0.000847359
0.000851881
0.000851463
0.000851069
0.0008507
0.000850354
0.00085003
0.000849725
0.000849437
0.000849164
0.000848906
0.00084866
0.000848426
0.000848202
0.000847989
0.000847785
0.00084759
0.000847403
0.000847224
0.000851881
0.000851461
0.000851064
0.000850691
0.000850341
0.000850012
0.000849702
0.000849408
0.00084913
0.000848865
0.000848613
0.000848372
0.000848143
0.000847922
0.000847712
0.00084751
0.000847316
0.00084713
0.000851881
0.00085146
0.000851063
0.000850689
0.000850337
0.000850006
0.000849693
0.000849396
0.000849114
0.000848846
0.00084859
0.000848345
0.000848111
0.000847887
0.000847672
0.000847466
0.000847269
0.000847079
0.000851881
0.000851462
0.000851066
0.000850694
0.000850344
0.000850014
0.000849702
0.000849406
0.000849124
0.000848855
0.000848599
0.000848354
0.000848119
0.000847894
0.000847678
0.000847471
0.000847273
0.000847083
0.000851882
0.000851465
0.000851073
0.000850705
0.000850359
0.000850033
0.000849725
0.000849433
0.000849154
0.000848889
0.000848635
0.000848392
0.00084816
0.000847937
0.000847723
0.000847518
0.000847321
0.000847131
0.000851883
0.000851471
0.000851085
0.000850724
0.000850386
0.000850068
0.000849768
0.000849483
0.000849211
0.000848951
0.000848701
0.000848457
0.000848218
0.000847982
0.000847746
0.000847509
0.000847268
0.000847022
0.000851886
0.00085148
0.000851104
0.000850755
0.000850431
0.000850128
0.000849837
0.000849547
0.000849244
0.000848912
0.000848538
0.000848111
0.000847622
0.000847067
0.000846446
0.000845758
0.000845007
0.000844194
0.000851892
0.000851496
0.000851137
0.000850813
0.000850492
0.000850102
0.000849546
0.000848738
0.000847619
0.000846164
0.000844378
0.000842281
0.000839906
0.000837295
0.000834486
0.000831516
0.000828423
0.000825228
0.000851921
0.000851535
0.000851204
0.000850636
0.000849322
0.000846681
0.000842716
0.000837422
0.000830971
0.000823815
0.00081602
0.000807851
0.00079947
0.000791003
0.000782547
0.000774171
0.000765928
0.000757835
0.000852163
0.000851741
0.000849735
0.000842988
0.000831107
0.000814648
0.000795992
0.000776342
0.000756562
0.000737142
0.000718345
0.000700309
0.0006831
0.000666744
0.000651241
0.000636574
0.000622708
0.000609588
0.000854662
0.000847081
0.000821414
0.000777182
0.000730041
0.000685715
0.000645653
0.000609711
0.000577356
0.000548067
0.00052144
0.000497173
0.000475031
0.000454817
0.000436354
0.000419478
0.000404032
0.000389861
0.000865917
0.000775116
0.000646667
0.000551611
0.000483957
0.00043171
0.000389187
0.00035323
0.000322184
0.000295227
0.000271824
0.000251551
0.000234021
0.00021887
0.000205761
0.000194413
0.000184542
0.00017595
0.000583439
0.000421699
0.000302149
0.000244278
0.000205124
0.000174686
0.000150601
0.000132047
0.000117997
0.000107577
9.99494e-05
9.44128e-05
9.04261e-05
8.759e-05
8.56146e-05
8.42894e-05
8.34606e-05
8.30144e-05
1.80953e-05
0.00010992
8.46186e-05
7.46077e-05
7.40769e-05
7.56144e-05
7.68401e-05
7.73019e-05
7.72071e-05
7.68635e-05
7.64916e-05
7.62075e-05
7.60548e-05
7.60369e-05
7.61384e-05
7.63376e-05
7.66122e-05
7.69416e-05
1.04256e-07
1.28952e-06
2.62228e-06
3.74165e-06
4.69661e-06
5.57238e-06
6.45502e-06
7.3585e-06
8.3139e-06
9.33957e-06
1.04411e-05
1.16289e-05
1.2893e-05
1.4243e-05
1.56764e-05
1.71906e-05
1.87951e-05
2.04831e-05
2.22663e-05
2.41352e-05
2.6097e-05
2.81574e-05
3.03043e-05
3.25449e-05
3.48864e-05
3.73132e-05
3.98348e-05
4.2452e-05
4.5167e-05
4.79837e-05
5.09057e-05
5.39238e-05
5.70376e-05
6.02481e-05
6.35417e-05
6.69461e-05
7.04452e-05
7.40258e-05
7.77151e-05
8.14797e-05
8.53508e-05
8.92912e-05
9.33123e-05
9.74313e-05
0.000101603
0.000105841
0.000110162
0.000114495
0.000118927
0.00012336
0.000127888
0.000132407
0.000137015
0.000141597
0.000146199
0.000150862
0.000155449
0.000160004
0.000164548
0.00016903
0.000173424
0.000177763
0.000182042
0.00018623
0.000190231
0.00019387
0.000196893
0.00019904
0.000200412
0.000200624
0.000201356
0.000203259
0.000206922
0.000199652
0.0001796
3.85342e-05
3.76337e-05
3.78636e-05
4.1788e-05
4.24046e-05
4.21637e-05
4.63659e-05
0.000237014
0.000222528
4.6257e-05
4.37897e-05
4.55846e-05
0.000204804
4.11604e-05
4.04765e-05
4.32147e-05
4.59607e-05
4.73804e-05
0.000243273
4.69587e-05
4.77303e-05
4.80294e-05
4.8313e-05
4.85845e-05
4.88432e-05
4.90849e-05
4.93221e-05
4.95452e-05
4.97647e-05
4.9966e-05
5.01589e-05
5.03414e-05
5.05147e-05
5.06775e-05
5.0831e-05
5.09688e-05
5.11092e-05
5.12261e-05
5.13342e-05
5.14329e-05
5.15362e-05
5.16167e-05
5.16893e-05
5.17536e-05
5.18102e-05
5.18588e-05
5.18991e-05
5.19173e-05
5.19412e-05
5.1956e-05
5.19563e-05
5.19461e-05
5.19333e-05
5.18972e-05
5.18649e-05
5.18065e-05
5.17419e-05
5.1647e-05
5.14928e-05
5.14489e-05
5.14579e-05
5.16756e-05
5.25444e-05
5.46438e-05
6.06297e-05
6.60716e-05
6.32299e-05
7.66953e-05
6.42706e-05
5.48751e-05
5.58384e-05
6.36937e-05
5.63421e-05
5.58905e-05
6.19474e-05
5.95137e-05
5.64092e-05
5.10223e-05
5.06323e-05
5.04486e-05
5.10935e-05
5.17559e-05
5.14341e-05
5.08521e-05
5.05098e-05
5.07396e-05
5.76428e-05
5.22135e-05
5.0873e-05
5.06356e-05
5.02944e-05
5.12476e-05
4.91374e-05
4.85368e-05
0.00026428
0.000251029
0.00024851
0.000291065
3.77296e-05
3.04789e-05
0.000230076
0.000261469
0.000250071
3.59605e-05
0.000209864
3.41121e-07
3.94042e-05
8.36476e-05
0.000114013
0.000134781
0.000149294
0.000159895
0.000168285
0.000175508
0.000182148
0.000188545
0.000194884
0.000201236
0.000207663
0.000214193
0.000220829
0.000227568
0.000234428
0.000241405
0.000248512
0.000255739
0.000263105
0.000270599
0.000278214
0.000285947
0.000293789
0.000301752
0.00030983
0.000318005
0.000326291
0.000334685
0.00034319
0.000351813
0.000360569
0.000369442
0.00037844
0.000387567
0.000396835
0.000406238
0.000415792
0.000425482
0.000435341
0.000445346
0.000455528
0.000465856
0.000476349
0.000486991
0.000497761
0.000508666
0.000519683
0.000530803
0.000541992
0.00055328
0.000564626
0.000576062
0.000587599
0.000599262
0.000611058
0.00062301
0.000635091
0.000647262
0.000659369
0.000671317
0.000682926
0.000693914
0.000704153
0.00071363
0.000722613
0.000731429
0.000740289
0.000745673
0.000739385
0.000708702
0.000639032
0.000545033
0.000515577
0.0005374
0.00057408
0.000623851
0.000597747
0.000615068
0.000697636
0.000749364
0.000685157
0.000627999
0.000645926
0.000707523
0.000744846
0.000727171
0.000745082
0.000760398
0.00077338
0.000826833
0.000873444
0.000813438
0.0008249
0.000833343
0.000841698
0.000849974
0.000857965
0.00086573
0.000873328
0.000880698
0.00088789
0.000894964
0.000901846
0.000908493
0.000915051
0.000921367
0.000927578
0.000933573
0.000939379
0.000945066
0.000950564
0.000955872
0.000961082
0.00096609
0.000970979
0.000975772
0.000980419
0.000984931
0.00098938
0.000993663
0.000997843
0.00100195
0.00100593
0.00100986
0.00101369
0.00101741
0.00102106
0.00102461
0.0010281
0.00103147
0.00103474
0.00103818
0.00104156
0.00104476
0.00104404
0.00102509
0.000940106
0.000747682
0.000707212
0.000751379
0.000668398
0.000603425
0.000612123
0.000662794
0.000631362
0.000631035
0.000645828
0.00061112
0.00056374
0.000503399
0.000489479
0.000486894
0.000487258
0.00048777
0.000487077
0.000489233
0.000501025
0.000525829
0.000578023
0.000570155
0.000555529
0.000547072
0.000539046
0.000579373
0.000612861
0.000616487
0.000971175
0.00106945
0.00106342
0.00111788
0.000544067
0.000586758
0.000863203
0.000941721
0.000973058
0.000538769
0.000748676
6.20449e-07
6.2865e-05
0.000135932
0.000191673
0.000233211
0.000264278
0.000287938
0.000306599
0.000322036
0.000335529
0.000347929
0.000359763
0.000371373
0.000382947
0.0003946
0.000406358
0.000418254
0.000430306
0.000442529
0.000454904
0.000467447
0.000480168
0.000493069
0.000506197
0.000519468
0.000532878
0.000546401
0.000560044
0.000573816
0.000587719
0.000601739
0.00061588
0.000630155
0.000644566
0.000659137
0.000673847
0.000688732
0.000703776
0.000719002
0.000734416
0.000750022
0.000765835
0.000781867
0.000798108
0.000814585
0.000831273
0.000848181
0.000865306
0.000882608
0.000900049
0.000917613
0.000935264
0.000952976
0.000970722
0.000988489
0.00100633
0.00102425
0.00104226
0.00106038
0.00107859
0.0010968
0.00111492
0.00113281
0.00115022
0.00116696
0.00118273
0.00119736
0.00121089
0.00122366
0.00123652
0.00124942
0.00125896
0.00125897
0.00124679
0.00123366
0.00124378
0.00127044
0.00130116
0.00132662
0.00134097
0.00136938
0.00140801
0.00142426
0.00141573
0.00141888
0.00144279
0.00147316
0.00149367
0.00151209
0.00153497
0.00155758
0.00158316
0.00161104
0.00162752
0.0016335
0.00164996
0.0016668
0.00168332
0.00169965
0.00171549
0.00173093
0.00174601
0.00176075
0.00177509
0.00178908
0.0018027
0.0018159
0.00182874
0.00184118
0.00185324
0.00186491
0.00187621
0.00188715
0.00189769
0.00190787
0.00191769
0.0019272
0.00193636
0.00194519
0.00195374
0.00196195
0.00196993
0.00197761
0.00198501
0.0019922
0.00199912
0.00200583
0.00201229
0.00201856
0.00202462
0.00203046
0.00203611
0.00204154
0.00204666
0.00205159
0.00205629
0.0020606
0.00206331
0.0020555
0.00200783
0.00190877
0.00187402
0.00188409
0.00182435
0.00177378
0.00178016
0.00181715
0.00180244
0.00180058
0.00180261
0.00176574
0.00170894
0.00164007
0.00161249
0.00160387
0.00159954
0.0015965
0.00159041
0.00158757
0.00159811
0.00162388
0.0016646
0.00166188
0.00163484
0.00161249
0.00159481
0.00162379
0.00164252
0.00164533
0.00178363
0.00180668
0.00178404
0.00178782
0.00153881
0.00151736
0.00162171
0.00164696
0.00164984
0.00144668
0.00147955
9.16343e-07
8.06465e-05
0.000174898
0.000249449
0.00030714
0.000351805
0.000386853
0.000415033
0.000438497
0.000458855
0.000477282
0.000494579
0.000511287
0.000527753
0.000544181
0.000560696
0.00057737
0.000594225
0.000611289
0.000628567
0.000646047
0.000663707
0.000681542
0.000699515
0.000717626
0.000735893
0.000754297
0.000772844
0.000791509
0.000810277
0.000829156
0.000848156
0.000867278
0.000886549
0.000905992
0.000925601
0.000945405
0.000965417
0.000985624
0.00100603
0.00102665
0.00104749
0.00106855
0.00108986
0.0011114
0.00113317
0.00115519
0.00117743
0.00119986
0.00122245
0.00124517
0.00126797
0.00129081
0.00131366
0.00133648
0.0013593
0.00138212
0.00140495
0.00142784
0.00145077
0.00147374
0.00149667
0.0015195
0.00154216
0.00156445
0.00158624
0.00160729
0.00162751
0.00164713
0.00166675
0.0016873
0.00170902
0.0017309
0.00175203
0.00177369
0.00179843
0.00182601
0.00185484
0.00188275
0.00190895
0.00193688
0.00196578
0.00199122
0.00201302
0.00203597
0.00206153
0.00208804
0.00211401
0.00214061
0.00216771
0.00219439
0.00222104
0.00224713
0.00227075
0.00229319
0.00231664
0.00233995
0.00236273
0.00238534
0.00240722
0.00242852
0.00244937
0.00246968
0.00248949
0.00250876
0.00252747
0.00254568
0.00256334
0.00258042
0.00259695
0.00261294
0.00262836
0.00264324
0.00265759
0.00267141
0.00268471
0.00269752
0.00270982
0.00272167
0.00273306
0.002744
0.00275454
0.00276466
0.00277439
0.00278375
0.00279273
0.00280139
0.0028097
0.00281773
0.00282548
0.0028329
0.00284004
0.00284682
0.00285322
0.00285918
0.00286457
0.00286934
0.00287328
0.00287454
0.00286567
0.0028431
0.00283128
0.00283184
0.00281814
0.0028056
0.00281031
0.00282316
0.00282293
0.00282415
0.00282368
0.00280933
0.00278551
0.00275697
0.00274106
0.00273337
0.00272728
0.00272053
0.00271204
0.00270375
0.00269946
0.00269889
0.00270085
0.00268819
0.00266247
0.0026361
0.00261058
0.00259537
0.00257749
0.002553
0.00254917
0.00251276
0.00247345
0.00245748
0.00238863
0.00234952
0.00234725
0.0023276
0.00229999
0.0022281
0.00219781
1.20636e-06
9.48291e-05
0.00020638
0.000296609
0.000368052
0.000424574
0.00046979
0.000506691
0.000537658
0.000564533
0.000588702
0.000611173
0.000632646
0.000653603
0.00067435
0.000695091
0.000715927
0.000736928
0.000758123
0.000779521
0.000801113
0.000822893
0.000844836
0.000866939
0.000889187
0.000911571
0.00093409
0.000956714
0.000979457
0.00100231
0.00102528
0.00104838
0.0010716
0.00109498
0.0011185
0.00114217
0.00116602
0.00119004
0.00121425
0.00123866
0.0012633
0.00128814
0.00131321
0.00133851
0.00136403
0.00138978
0.00141575
0.00144192
0.00146829
0.00149481
0.00152145
0.00154818
0.00157496
0.00160175
0.00162855
0.00165535
0.00168216
0.00170901
0.00173593
0.0017629
0.00178998
0.00181715
0.00184442
0.0018718
0.00189929
0.00192682
0.00195431
0.00198167
0.00200891
0.00203633
0.00206438
0.00209352
0.00212385
0.00215513
0.00218707
0.0022195
0.00225224
0.00228524
0.00231822
0.00235073
0.002383
0.00241524
0.00244725
0.00247893
0.00251055
0.00254213
0.00257364
0.00260505
0.00263642
0.00266761
0.00269839
0.00272876
0.00275872
0.00278803
0.0028169
0.0028454
0.00287341
0.00290081
0.002928
0.00295438
0.00298007
0.00300516
0.00302964
0.00305346
0.00307666
0.00309919
0.00312107
0.00314226
0.00316276
0.00318259
0.00320172
0.00322019
0.00323795
0.00325508
0.00327152
0.00328734
0.00330251
0.00331709
0.00333104
0.00334444
0.00335726
0.00336956
0.00338133
0.00339263
0.00340343
0.00341379
0.00342375
0.00343329
0.00344249
0.0034513
0.00345978
0.00346789
0.00347563
0.00348295
0.00348972
0.00349579
0.00350095
0.00350495
0.0035076
0.00350785
0.00350467
0.00350232
0.00350418
0.00350615
0.00350893
0.00351469
0.00352144
0.00352618
0.0035306
0.0035328
0.00353001
0.00352347
0.00351553
0.00350986
0.00350592
0.00350166
0.003496
0.00348857
0.00347975
0.00347005
0.00345868
0.0034455
0.0034276
0.00340399
0.00337745
0.00334874
0.00331845
0.00328573
0.00325025
0.00320901
0.00315827
0.00311413
0.00308494
0.00305243
0.00301512
0.00297971
0.00294039
0.00290181
0.00286062
0.00281679
1.47664e-06
0.000106294
0.000232158
0.000335882
0.000419365
0.000486531
0.000541053
0.000586057
0.000624081
0.00065713
0.000686753
0.000714093
0.000740001
0.000765067
0.000789693
0.000814145
0.000838596
0.000863139
0.000887831
0.000912693
0.000937731
0.000962941
0.000988312
0.00101382
0.00103947
0.00106523
0.00109111
0.0011171
0.00114317
0.00116934
0.00119562
0.00122199
0.00124848
0.00127509
0.00130183
0.00132871
0.00135574
0.00138293
0.0014103
0.00143785
0.00146559
0.00149354
0.00152169
0.00155005
0.00157861
0.00160738
0.00163635
0.0016655
0.00169483
0.00172431
0.00175392
0.00178363
0.00181342
0.00184328
0.00187319
0.00190316
0.00193321
0.00196337
0.0019937
0.0020242
0.00205493
0.0020859
0.00211716
0.00214872
0.00218062
0.00221288
0.00224546
0.00227834
0.00231147
0.00234491
0.00237879
0.00241325
0.00244841
0.00248419
0.00252046
0.00255702
0.00259376
0.0026306
0.00266743
0.00270412
0.00274061
0.00277694
0.00281318
0.00284938
0.00288547
0.00292139
0.0029571
0.00299253
0.00302765
0.0030624
0.00309678
0.00313075
0.00316428
0.00319737
0.00322997
0.00326204
0.00329351
0.00332431
0.00335487
0.00338458
0.00341351
0.00344174
0.00346927
0.00349608
0.00352216
0.00354748
0.00357205
0.00359584
0.00361885
0.00364107
0.00366248
0.00368311
0.00370295
0.00372202
0.0037403
0.00375783
0.0037746
0.00379065
0.003806
0.00382065
0.00383464
0.003848
0.00386073
0.00387288
0.00388449
0.00389555
0.00390613
0.00391625
0.00392594
0.00393523
0.00394416
0.00395272
0.00396086
0.00396865
0.00397594
0.00398254
0.0039883
0.00399289
0.00399632
0.0039986
0.00399996
0.00400191
0.0040062
0.00401231
0.00401937
0.00402709
0.00403493
0.0040426
0.00404985
0.00405537
0.0040583
0.0040592
0.00405925
0.00405938
0.00405942
0.00405841
0.00405565
0.00405081
0.00404397
0.00403488
0.00402291
0.00400788
0.00398943
0.00396691
0.00394083
0.00391168
0.00387953
0.00384472
0.00380711
0.00376347
0.00371579
0.00367159
0.0036339
0.00359818
0.00355884
0.0035171
0.00347405
0.00343218
0.0033914
0.00334318
1.71833e-06
0.000115467
0.000253101
0.000368432
0.000462504
0.000539263
0.00060232
0.000654871
0.000699544
0.00073845
0.000773238
0.000805179
0.000835226
0.00086406
0.00089218
0.00091992
0.000947504
0.000975068
0.0010027
0.00103045
0.00105833
0.00108635
0.0011145
0.00114278
0.00117116
0.00119964
0.00122821
0.00125686
0.00128558
0.00131438
0.00134325
0.0013722
0.00140122
0.00143035
0.00145957
0.00148891
0.00151836
0.00154795
0.0015777
0.00160759
0.00163766
0.00166791
0.00169833
0.00172894
0.00175974
0.00179071
0.00182188
0.00185321
0.00188471
0.00191638
0.00194819
0.00198012
0.00201217
0.00204434
0.00207662
0.00210905
0.00214164
0.00217442
0.00220746
0.00224079
0.00227443
0.00230845
0.00234285
0.00237765
0.00241289
0.00244858
0.00248471
0.00252127
0.00255821
0.00259552
0.00263318
0.00267121
0.00270962
0.00274837
0.0027874
0.00282663
0.00286603
0.00290552
0.00294504
0.00298451
0.00302389
0.00306317
0.00310233
0.0031414
0.00318034
0.00321908
0.00325759
0.00329581
0.00333368
0.00337119
0.0034083
0.003445
0.00348124
0.003517
0.00355224
0.00358692
0.00362097
0.00365431
0.0036874
0.0037196
0.00375098
0.00378159
0.00381144
0.0038405
0.00386875
0.00389618
0.00392277
0.0039485
0.00397335
0.00399732
0.0040204
0.00404258
0.00406388
0.00408428
0.00410381
0.00412246
0.00414026
0.00415721
0.00417333
0.00418866
0.00420322
0.00421705
0.00423014
0.00424256
0.00425433
0.0042655
0.00427609
0.00428616
0.00429575
0.00430488
0.00431364
0.00432203
0.00433006
0.00433773
0.00434492
0.00435163
0.00435771
0.00436305
0.00436761
0.00437162
0.00437557
0.00438035
0.00438678
0.00439473
0.00440379
0.00441358
0.00442381
0.00443429
0.00444459
0.0044539
0.0044617
0.00446828
0.00447414
0.00447959
0.00448436
0.00448779
0.00448927
0.00448843
0.0044851
0.004479
0.00446961
0.00445665
0.00444002
0.00441944
0.00439511
0.00436734
0.00433643
0.00430265
0.00426574
0.00422478
0.00418115
0.00413793
0.00409654
0.00405598
0.00401444
0.00397189
0.00392876
0.00388595
0.00384266
0.00379348
1.92579e-06
0.000122658
0.000269809
0.000394936
0.000498276
0.000583614
0.000654445
0.000713964
0.000764844
0.000809252
0.000848911
0.000885175
0.000919071
0.000951378
0.000982652
0.0010133
0.0010436
0.00107374
0.00110382
0.00113394
0.00116413
0.00119439
0.00122475
0.00125519
0.00128571
0.00131629
0.00134693
0.00137762
0.00140835
0.00143913
0.00146994
0.0015008
0.00153171
0.00156268
0.0015937
0.00162481
0.00165601
0.0016873
0.00171871
0.00175025
0.00178192
0.00181374
0.00184571
0.00187785
0.00191015
0.00194262
0.00197525
0.00200805
0.00204103
0.00207417
0.00210746
0.00214092
0.00217454
0.00220833
0.00224229
0.00227645
0.00231084
0.0023455
0.00238047
0.0024158
0.00245151
0.00248764
0.0025242
0.00256122
0.00259869
0.00263659
0.00267496
0.00271375
0.00275293
0.00279248
0.00283235
0.00287252
0.00291297
0.00295365
0.00299452
0.00303557
0.00307675
0.00311801
0.00315934
0.00320065
0.00324194
0.00328317
0.0033243
0.00336533
0.00340621
0.00344691
0.00348739
0.00352759
0.00356747
0.003607
0.00364615
0.00368488
0.00372315
0.00376094
0.00379821
0.00383489
0.00387096
0.00390628
0.00394134
0.0039755
0.00400881
0.00404131
0.004073
0.00410384
0.00413383
0.00416292
0.0041911
0.00421834
0.00424462
0.00426993
0.00429427
0.00431762
0.00433997
0.00436131
0.00438167
0.00440104
0.00441943
0.00443687
0.00445336
0.00446893
0.00448361
0.00449743
0.00451041
0.00452261
0.00453405
0.00454479
0.00455487
0.00456432
0.00457326
0.0045817
0.0045897
0.00459728
0.00460449
0.00461136
0.0046179
0.0046241
0.00462993
0.0046354
0.00464057
0.0046457
0.00465122
0.00465767
0.00466546
0.00467466
0.00468512
0.00469666
0.00470908
0.00472217
0.00473553
0.00474868
0.00476126
0.00477332
0.00478494
0.00479611
0.00480642
0.00481533
0.00482224
0.00482673
0.00482842
0.00482699
0.004822
0.00481312
0.00480024
0.00478325
0.00476226
0.00473753
0.00470935
0.00467794
0.00464324
0.00460525
0.0045648
0.00452335
0.0044818
0.0044402
0.00439827
0.00435597
0.00431342
0.0042707
0.00422683
0.00417858
2.0961e-06
0.000128117
0.000282753
0.000415995
0.000527296
0.000620174
0.000697971
0.000763831
0.000820418
0.000869926
0.000914114
0.00095439
0.000991842
0.00102731
0.00106142
0.00109462
0.00112726
0.00115955
0.00119165
0.00122366
0.00125566
0.00128765
0.00131967
0.00135173
0.00138381
0.00141592
0.00144805
0.00148017
0.00151232
0.00154445
0.0015766
0.00160874
0.00164089
0.00167306
0.00170526
0.00173749
0.00176977
0.0018021
0.00183452
0.00186702
0.00189963
0.00193235
0.00196519
0.00199817
0.00203129
0.00206457
0.00209799
0.00213158
0.00216534
0.00219928
0.00223339
0.00226769
0.00230218
0.00233688
0.0023718
0.00240697
0.00244242
0.00247818
0.00251429
0.00255078
0.00258768
0.00262501
0.0026628
0.00270104
0.00273972
0.00277885
0.0028184
0.00285835
0.00289869
0.00293938
0.00298038
0.00302168
0.00306323
0.00310501
0.00314699
0.00318914
0.00323142
0.00327381
0.00331627
0.00335877
0.00340129
0.00344379
0.00348624
0.0035286
0.00357085
0.00361295
0.00365486
0.00369652
0.00373791
0.00377898
0.00381971
0.00386004
0.00389993
0.00393935
0.00397826
0.0040166
0.00405433
0.0040913
0.00412799
0.00416381
0.00419876
0.00423288
0.00426614
0.00429852
0.00432999
0.00436051
0.00439005
0.00441859
0.00444609
0.00447253
0.00449791
0.00452219
0.00454538
0.00456745
0.00458841
0.00460826
0.00462701
0.00464467
0.00466125
0.00467678
0.00469129
0.00470481
0.00471735
0.00472897
0.00473972
0.00474964
0.00475878
0.00476722
0.00477503
0.00478223
0.00478891
0.00479513
0.00480096
0.00480647
0.00481171
0.00481673
0.00482158
0.00482635
0.0048312
0.00483637
0.00484221
0.0048491
0.00485733
0.00486705
0.00487826
0.00489095
0.004905
0.00492024
0.00493638
0.00495313
0.0049702
0.00498749
0.00500484
0.00502199
0.00503849
0.00505376
0.00506718
0.00507819
0.00508636
0.0050912
0.00509229
0.00508926
0.00508195
0.00507026
0.00505429
0.00503419
0.00501024
0.00498267
0.00495161
0.00491731
0.00488037
0.00484172
0.00480212
0.00476187
0.00472116
0.00468007
0.00463869
0.00459691
0.00455399
0.00450773
2.22802e-06
0.000132046
0.000292325
0.00043207
0.000550051
0.000649408
0.000733326
0.000804841
0.000866572
0.000920704
0.000969019
0.00101295
0.00105362
0.00109192
0.00112852
0.00116393
0.00119852
0.00123256
0.00126624
0.0012997
0.00133302
0.00136624
0.00139941
0.00143255
0.00146565
0.00149872
0.00153175
0.00156474
0.00159768
0.00163058
0.00166343
0.00169623
0.001729
0.00176174
0.00179446
0.00182717
0.00185988
0.00189261
0.00192537
0.00195818
0.00199105
0.00202401
0.00205705
0.0020902
0.00212348
0.00215688
0.00219043
0.00222413
0.002258
0.00229205
0.00232629
0.00236074
0.0023954
0.00243031
0.00246547
0.00250091
0.00253666
0.00257275
0.00260922
0.00264608
0.00268336
0.00272108
0.00275925
0.00279787
0.00283693
0.00287643
0.00291635
0.00295667
0.00299737
0.00303843
0.00307982
0.00312153
0.00316352
0.00320577
0.00324825
0.00329093
0.0033338
0.0033768
0.00341994
0.00346316
0.00350646
0.00354979
0.00359312
0.00363643
0.00367967
0.00372281
0.00376582
0.00380864
0.00385125
0.00389358
0.00393562
0.0039773
0.00401859
0.00405944
0.0040998
0.00413961
0.00417883
0.00421731
0.00425549
0.00429283
0.0043293
0.00436492
0.00439966
0.00443349
0.00446636
0.00449824
0.00452908
0.00455885
0.00458751
0.00461503
0.00464139
0.00466655
0.00469051
0.00471323
0.00473473
0.00475499
0.00477401
0.00479181
0.00480837
0.00482375
0.00483794
0.00485099
0.00486292
0.00487379
0.00488362
0.00489248
0.00490044
0.00490754
0.00491387
0.00491947
0.00492445
0.00492888
0.00493287
0.0049365
0.00493986
0.00494306
0.00494623
0.0049495
0.00495308
0.00495723
0.00496225
0.00496847
0.00497616
0.00498553
0.00499671
0.00500977
0.00502471
0.00504147
0.00505987
0.00507974
0.00510085
0.00512301
0.00514594
0.00516924
0.00519237
0.00521469
0.00523553
0.0052542
0.00527012
0.0052827
0.00529143
0.00529591
0.00529583
0.00529109
0.00528169
0.00526776
0.00524954
0.00522727
0.00520117
0.00517162
0.0051391
0.00510435
0.005068
0.00503053
0.00499221
0.00495326
0.00491383
0.00487385
0.00483282
0.00478914
2.32261e-06
0.000134629
0.000298865
0.000443594
0.000567005
0.000671746
0.000760886
0.000837299
0.000903539
0.000961753
0.00101371
0.00106086
0.00110435
0.00114509
0.0011838
0.00122102
0.00125717
0.00129253
0.00132735
0.00136177
0.00139592
0.00142986
0.00146365
0.00149732
0.00153088
0.00156434
0.00159769
0.00163093
0.00166407
0.00169709
0.00173001
0.00176283
0.00179555
0.0018282
0.00186077
0.00189328
0.00192574
0.00195818
0.0019906
0.00202303
0.00205548
0.00208797
0.00212053
0.00215316
0.0021859
0.00221874
0.00225171
0.00228483
0.00231812
0.00235159
0.00238526
0.00241915
0.00245329
0.00248768
0.00252237
0.00255736
0.00259269
0.00262839
0.00266448
0.00270099
0.00273792
0.00277531
0.00281316
0.00285146
0.00289023
0.00292944
0.0029691
0.00300918
0.00304968
0.00309057
0.00313183
0.00317346
0.00321542
0.00325769
0.00330026
0.00334309
0.00338617
0.00342947
0.00347296
0.00351662
0.00356042
0.00360433
0.00364831
0.00369234
0.00373638
0.00378039
0.00382433
0.00386817
0.00391185
0.00395533
0.00399857
0.00404152
0.00408412
0.00412634
0.0041681
0.00420935
0.00425003
0.00429
0.00432965
0.0043685
0.0044065
0.00444365
0.0044799
0.00451521
0.00454954
0.00458282
0.00461502
0.00464609
0.00467598
0.00470465
0.00473206
0.00475818
0.00478298
0.00480645
0.00482854
0.00484927
0.00486862
0.0048866
0.00490319
0.00491843
0.00493232
0.00494492
0.00495622
0.00496628
0.00497515
0.00498288
0.00498954
0.00499516
0.00499984
0.00500365
0.00500669
0.00500907
0.00501088
0.00501225
0.00501331
0.0050142
0.00501508
0.00501616
0.00501767
0.0050199
0.00502314
0.00502772
0.00503393
0.00504204
0.00505229
0.00506485
0.00507984
0.0050973
0.00511721
0.0051395
0.00516401
0.00519053
0.00521872
0.00524813
0.00527813
0.00530799
0.00533696
0.0053642
0.005389
0.00541061
0.00542841
0.00544187
0.00545057
0.00545429
0.00545296
0.00544666
0.00543558
0.00541997
0.00540011
0.0053764
0.00534931
0.00531945
0.00528743
0.00525374
0.00521879
0.00518284
0.00514613
0.0051087
0.00507019
0.00502949
2.38153e-06
0.000136018
0.000302675
0.00045095
0.000578506
0.000687547
0.000780962
0.000861456
0.000931488
0.000993151
0.00104819
0.00109803
0.00114385
0.00118657
0.00122693
0.0012655
0.00130271
0.00133894
0.0013744
0.00140926
0.00144369
0.00147779
0.00151162
0.00154522
0.00157862
0.00161183
0.00164487
0.00167773
0.00171038
0.00174284
0.00177513
0.00180725
0.00183921
0.00187103
0.00190272
0.00193429
0.00196576
0.00199714
0.00202848
0.00205977
0.00209105
0.00212234
0.00215366
0.00218504
0.00221649
0.00224804
0.00227971
0.00231152
0.00234351
0.00237569
0.00240808
0.00244072
0.00247363
0.00250682
0.00254034
0.00257422
0.00260846
0.00264311
0.00267818
0.00271371
0.0027497
0.00278617
0.00282314
0.0028606
0.00289857
0.00293703
0.00297598
0.00301542
0.00305533
0.0030957
0.00313651