/*--------------------------------*- C++ -*----------------------------------*\
  =========                 |
  \\      /  F ield         | OpenFOAM: The Open Source CFD Toolbox
   \\    /   O peration     | Website:  https://openfoam.org
    \\  /    A nd           | Version:  7
     \\/     M anipulation  |
\*---------------------------------------------------------------------------*/
FoamFile
{
    version     2.0;
    format      ascii;
    class       volScalarField;
    location    "500";
    object      p;
}
// * * * * * * * * * * * * * * * * * * * * * * * * * * * * * * * * * * * * * //

dimensions      [0 2 -2 0 0 0 0];

internalField   nonuniform List<scalar> 
48900
(
-1.31766
-1.63088
-2.65027
-3.2579
-3.52338
-3.67591
-3.80113
-3.92324
-4.04439
-4.16262
-4.27735
-4.38946
-4.50091
-4.61383
-4.73148
-4.85863
-5.00373
-5.18787
-1.85503
-2.31077
-2.71138
-3.18818
-3.45182
-3.62363
-3.76344
-3.89326
-4.01812
-4.13827
-4.25425
-4.36742
-4.47965
-4.59324
-4.71125
-4.83799
-4.98013
-5.14634
-1.89731
-2.3186
-2.79336
-3.19105
-3.44352
-3.61736
-3.75958
-3.88973
-4.01363
-4.1324
-4.24695
-4.35863
-4.46924
-4.58085
-4.69606
-4.81803
-4.94992
-5.08664
-2.11403
-2.41997
-2.82997
-3.18743
-3.43273
-3.60851
-3.75306
-3.88388
-4.00735
-4.12534
-4.239
-4.34967
-4.45891
-4.56842
-4.68007
-4.79553
-4.91448
-5.0267
-2.28625
-2.50177
-2.87533
-3.19422
-3.42891
-3.60397
-3.74936
-3.88018
-4.00284
-4.11965
-4.23199
-4.34113
-4.4484
-4.5551
-4.66235
-4.77046
-4.87697
-4.97165
-2.44153
-2.59167
-2.91931
-3.20497
-3.42812
-3.60104
-3.74639
-3.87687
-3.9986
-4.11416
-4.22503
-4.33242
-4.43741
-4.54091
-4.64337
-4.74412
-4.83985
-4.92237
-2.58098
-2.68391
-2.96492
-3.21985
-3.43009
-3.5992
-3.74345
-3.8731
-3.99367
-4.10781
-4.21704
-4.32244
-4.42487
-4.52488
-4.62239
-4.71619
-4.80304
-4.87704
-2.70646
-2.77602
-3.01323
-3.23931
-3.43529
-3.59883
-3.74073
-3.86883
-3.98786
-4.10031
-4.20763
-4.31078
-4.41039
-4.5067
-4.59931
-4.68684
-4.76653
-4.83444
-2.81952
-2.86558
-3.06385
-3.26321
-3.44403
-3.60044
-3.73872
-3.86444
-3.98141
-4.09179
-4.19688
-4.29748
-4.39403
-4.48654
-4.57445
-4.65645
-4.73041
-4.79385
-2.92142
-2.951
-3.11585
-3.29076
-3.45618
-3.60428
-3.73781
-3.86032
-3.97464
-4.08253
-4.18505
-4.28283
-4.37613
-4.46482
-4.54831
-4.62549
-4.69485
-4.75488
-3.01315
-3.03128
-3.16814
-3.32099
-3.47126
-3.61027
-3.73813
-3.85671
-3.96784
-4.07282
-4.17244
-4.26716
-4.35709
-4.44202
-4.52142
-4.59442
-4.66
-4.71735
-3.08615
-3.10282
-3.21752
-3.3515
-3.48786
-3.61777
-3.73957
-3.85378
-3.96141
-4.06325
-4.15984
-4.25145
-4.3381
-4.41955
-4.49534
-4.56485
-4.62742
-4.68265
-3.15614
-3.16331
-3.26123
-3.37988
-3.50426
-3.62578
-3.74168
-3.85153
-3.95562
-4.05435
-4.148
-4.23668
-4.32034
-4.39873
-4.47149
-4.53817
-4.59838
-4.65193
-3.22648
-3.22628
-3.30857
-3.41194
-3.5237
-3.63581
-3.74478
-3.84934
-3.94911
-4.04407
-4.13422
-4.2195
-4.29979
-4.37487
-4.44447
-4.50829
-4.56616
-4.61805
-3.29401
-3.28923
-3.35758
-3.44642
-3.54547
-3.64751
-3.74868
-3.84707
-3.94176
-4.03228
-4.11837
-4.19983
-4.27645
-4.34804
-4.41441
-4.47541
-4.53099
-4.58124
-3.35436
-3.34857
-3.40512
-3.48091
-3.56786
-3.65974
-3.75265
-3.84427
-3.93326
-4.01881
-4.10041
-4.17771
-4.25047
-4.31849
-4.38165
-4.4399
-4.49328
-4.54194
-3.40124
-3.39913
-3.4464
-3.51136
-3.58771
-3.67018
-3.75505
-3.83984
-3.92295
-4.00331
-4.08024
-4.15329
-4.22216
-4.28668
-4.34676
-4.40242
-4.45372
-4.50084
-3.42513
-3.43332
-3.47426
-3.53147
-3.59983
-3.67481
-3.75295
-3.83177
-3.90955
-3.9851
-4.05766
-4.12674
-4.19201
-4.25332
-4.31061
-4.36391
-4.41332
-4.459
-3.41013
-3.43936
-3.47776
-3.53165
-3.59631
-3.66748
-3.74182
-3.81691
-3.89108
-3.96315
-4.0324
-4.09835
-4.16073
-4.21944
-4.27444
-4.3258
-4.37362
-4.41806
-3.35895
-3.40316
-3.4447
-3.50215
-3.56997
-3.64344
-3.7191
-3.79462
-3.86846
-3.93967
-4.0077
-4.07223
-4.13313
-4.19038
-4.24402
-4.29417
-4.34096
-4.38456
-3.28733
-3.34529
-3.39431
-3.46031
-3.53605
-3.61593
-3.69629
-3.77494
-3.85068
-3.92288
-3.99125
-4.05572
-4.1163
-4.17309
-4.22623
-4.27588
-4.32222
-4.36543
-3.19783
-3.26976
-3.33105
-3.41042
-3.49809
-3.58733
-3.67441
-3.75758
-3.83619
-3.91008
-3.97937
-4.04423
-4.10491
-4.1616
-4.21455
-4.26396
-4.31006
-4.35304
-3.09305
-3.18063
-3.25998
-3.35752
-3.46053
-3.5611
-3.65588
-3.744
-3.82562
-3.90128
-3.97155
-4.03691
-4.09777
-4.15448
-4.20734
-4.25662
-4.30256
-4.3454
-2.97454
-3.08069
-3.18537
-3.30561
-3.42672
-3.53959
-3.64213
-3.73483
-3.81905
-3.89612
-3.96712
-4.03283
-4.09383
-4.15054
-4.20332
-4.25248
-4.29829
-4.341
-2.84359
-2.97203
-3.11113
-3.25781
-3.39903
-3.52409
-3.63363
-3.72996
-3.81595
-3.89384
-3.96518
-4.031
-4.09198
-4.14862
-4.20128
-4.2503
-4.29597
-4.33856
-2.7028
-2.85674
-3.0407
-3.21642
-3.37859
-3.51474
-3.62985
-3.72846
-3.81523
-3.89327
-3.96456
-4.03028
-4.09115
-4.14767
-4.20021
-4.24909
-4.29462
-4.33711
-2.5563
-2.73782
-2.97511
-3.1823
-3.36468
-3.51032
-3.62936
-3.72896
-3.81567
-3.8934
-3.96443
-4.02999
-4.09078
-4.14724
-4.19972
-4.2485
-4.29392
-4.33635
-2.39805
-2.63179
-2.9132
-3.1534
-3.35527
-3.50947
-3.63138
-3.7312
-3.81742
-3.89466
-3.96539
-4.03084
-4.09161
-4.14809
-4.20058
-4.24932
-4.29459
-4.33691
-2.80516
-2.4232
-2.83464
-3.13499
-3.35654
-3.51839
-3.64117
-3.73932
-3.82352
-3.89915
-3.9688
-4.03359
-4.09399
-4.15027
-4.20262
-4.25119
-4.29618
-4.33806
3.87539
-3.22883
-3.00898
-3.20856
-3.39315
-3.5388
-3.65094
-3.74217
-3.82293
-3.89748
-3.96743
-4.03316
-4.0947
-4.15208
-4.2054
-4.25474
-4.30021
-4.34197
-5.49314
-5.49235
-5.49283
-5.49438
-5.49677
-5.49966
-5.50289
-5.50634
-5.50996
-5.51374
-5.51773
-5.52197
-5.5265
-5.53135
-5.53657
-5.54219
-5.54824
-5.55477
-5.56178
-5.5693
-5.57736
-5.58595
-5.59511
-5.60483
-5.61511
-5.62596
-5.63738
-5.64937
-5.66191
-5.675
-5.68864
-5.70282
-5.71753
-5.73276
-5.7485
-5.76471
-5.78142
-5.79857
-5.81617
-5.8342
-5.85263
-5.87142
-5.89058
-5.91007
-5.92982
-5.94985
-5.97009
-5.99049
-6.01101
-6.03158
-6.05216
-6.07266
-6.09301
-6.11322
-6.13305
-6.15253
-6.17165
-6.19024
-6.20813
-6.22551
-6.24199
-6.25735
-6.27123
-6.28327
-6.29353
-6.30326
-6.31234
-6.31795
-6.32483
-6.33341
-6.33676
-6.33485
-6.33426
-6.32659
-6.30723
-6.29299
-6.27691
-6.26291
-6.24294
-6.20006
-6.1819
-6.13838
-6.09429
-6.04603
-5.9981
-5.9506
-5.89228
-5.78525
-5.69488
-5.64785
-5.56784
-5.4628
-5.36866
-5.2758
-5.14913
-5.0212
-4.89491
-4.76394
-4.627
-4.48388
-4.33417
-4.17803
-4.01503
-3.84548
-3.66909
-3.48611
-3.2963
-3.09985
-2.89649
-2.68651
-2.46949
-2.24589
-2.0153
-1.77789
-1.53349
-1.28246
-1.02439
-0.759353
-0.487563
-0.208603
0.077376
0.370494
0.670782
0.978285
1.29298
1.61481
1.94396
2.27993
2.62316
2.97284
3.32934
3.69197
4.06063
4.43511
4.81488
5.20022
5.59152
5.98968
6.39627
6.82091
7.27052
7.65299
8.0469
8.46833
8.88183
9.29429
9.71384
10.1268
10.5372
10.9535
11.3591
11.755
12.1382
12.5102
12.8747
13.2286
13.5697
13.8961
14.2064
14.498
14.7654
15.0091
15.2273
15.4327
15.615
15.7859
15.9261
16.0381
16.1468
16.2229
16.2708
16.2525
16.2161
16.2611
16.2969
16.3081
16.2933
16.2857
16.3131
16.4452
-5.49009
-5.49208
-5.49274
-5.49401
-5.49529
-5.49662
-5.49812
-5.49989
-5.50198
-5.50442
-5.50722
-5.51041
-5.51399
-5.51798
-5.52239
-5.52725
-5.53259
-5.53842
-5.54478
-5.55168
-5.55913
-5.56716
-5.57576
-5.58495
-5.59472
-5.60509
-5.61604
-5.62756
-5.63967
-5.65234
-5.66556
-5.67934
-5.69365
-5.70848
-5.72382
-5.73966
-5.75598
-5.77276
-5.78999
-5.80764
-5.8257
-5.84414
-5.86292
-5.88203
-5.90143
-5.92108
-5.94095
-5.96097
-5.98113
-6.00135
-6.02159
-6.04176
-6.06184
-6.08171
-6.10129
-6.12055
-6.13932
-6.15755
-6.17515
-6.192
-6.20802
-6.22312
-6.23716
-6.25003
-6.2616
-6.27147
-6.27918
-6.28573
-6.29043
-6.29223
-6.29207
-6.29165
-6.28809
-6.28264
-6.2757
-6.26113
-6.24277
-6.21915
-6.19465
-6.1767
-6.13593
-6.09996
-6.06091
-6.01292
-5.95597
-5.89053
-5.82284
-5.77014
-5.70194
-5.60754
-5.52314
-5.43703
-5.33448
-5.22567
-5.12504
-5.01259
-4.89011
-4.76143
-4.62644
-4.48497
-4.33687
-4.18225
-4.02097
-3.85308
-3.67856
-3.49732
-3.30941
-3.11473
-2.91333
-2.70516
-2.49016
-2.26841
-2.03982
-1.8044
-1.56216
-1.31315
-1.05723
-0.794393
-0.52486
-0.248207
0.0353995
0.326198
0.623966
0.928957
1.24111
1.56042
1.88688
2.22027
2.56078
2.90782
3.26156
3.62156
3.98749
4.35918
4.73626
5.11834
5.5056
5.89851
6.29801
6.69747
7.09676
7.53712
7.94761
8.35256
8.7716
9.19201
9.60434
10.0178
10.4277
10.833
11.2358
11.6316
12.0188
12.3943
12.7585
13.1113
13.4502
13.7727
14.0775
14.3637
14.6318
14.8788
15.1142
15.3202
15.5075
15.6697
15.821
15.9465
16.0423
16.1239
16.1726
16.2057
16.2256
16.2326
16.25
16.2565
16.2635
16.2715
16.3016
16.3927
-5.48119
-5.48721
-5.48903
-5.49065
-5.49186
-5.49279
-5.49363
-5.49456
-5.49573
-5.49723
-5.49914
-5.50148
-5.50429
-5.50757
-5.51135
-5.51564
-5.52045
-5.5258
-5.5317
-5.53815
-5.54519
-5.55281
-5.56101
-5.56981
-5.57919
-5.58916
-5.59972
-5.61085
-5.62256
-5.63483
-5.64765
-5.66102
-5.67492
-5.68934
-5.70427
-5.7197
-5.7356
-5.75197
-5.76879
-5.78603
-5.80368
-5.82171
-5.8401
-5.85881
-5.87782
-5.8971
-5.9166
-5.93627
-5.95608
-5.97597
-5.99589
-6.01577
-6.03556
-6.05516
-6.07452
-6.09355
-6.11217
-6.13028
-6.1478
-6.16462
-6.18062
-6.19566
-6.20961
-6.22239
-6.234
-6.24441
-6.25343
-6.26104
-6.26732
-6.27171
-6.27338
-6.27218
-6.2677
-6.25958
-6.24829
-6.23408
-6.21722
-6.19826
-6.17705
-6.15164
-6.11734
-6.07937
-6.03903
-5.99125
-5.93599
-5.87524
-5.81298
-5.75093
-5.68155
-5.60088
-5.51455
-5.42408
-5.32871
-5.22804
-5.12253
-5.00928
-4.88902
-4.76233
-4.6292
-4.48949
-4.34319
-4.19039
-4.031
-3.865
-3.69242
-3.51316
-3.32721
-3.1346
-2.93524
-2.72916
-2.51631
-2.29672
-2.0704
-1.83726
-1.59736
-1.35069
-1.09718
-0.836834
-0.569814
-0.295717
-0.0147101
0.273449
0.568476
0.870713
1.18008
1.49656
1.82017
2.1507
2.48825
2.83239
3.18321
3.54031
3.90336
4.27217
4.64638
5.02571
5.40981
5.79887
6.19364
6.59581
7.00701
7.42895
7.83891
8.24548
8.66349
9.08154
9.49152
9.90235
10.3123
10.7162
11.1167
11.5117
11.8993
12.2757
12.6404
12.9932
13.3327
13.6563
13.9616
14.2467
14.5148
14.7664
15.0018
15.2129
15.4026
15.567
15.7113
15.8375
15.9327
16.0189
16.0866
16.1432
16.1851
16.1952
16.1979
16.2071
16.2208
16.2411
16.2689
16.3215
-5.46922
-5.47833
-5.48249
-5.48547
-5.48753
-5.48894
-5.48997
-5.49087
-5.49185
-5.49306
-5.49461
-5.49657
-5.49899
-5.50191
-5.50534
-5.5093
-5.5138
-5.51886
-5.52449
-5.53069
-5.53747
-5.54483
-5.55278
-5.56131
-5.57043
-5.58013
-5.59041
-5.60126
-5.61267
-5.62464
-5.63715
-5.65021
-5.66379
-5.67789
-5.69249
-5.70759
-5.72317
-5.73921
-5.7557
-5.77262
-5.78995
-5.80768
-5.82577
-5.84419
-5.86292
-5.88192
-5.90117
-5.9206
-5.94019
-5.95988
-5.97963
-5.99935
-6.019
-6.03849
-6.05777
-6.07675
-6.09537
-6.11349
-6.13109
-6.14802
-6.16416
-6.17941
-6.19364
-6.2067
-6.21855
-6.22915
-6.23849
-6.24645
-6.25282
-6.25719
-6.25913
-6.2581
-6.25368
-6.24598
-6.23531
-6.2218
-6.20548
-6.18627
-6.16386
-6.1374
-6.10561
-6.06873
-6.02729
-5.98039
-5.92777
-5.87021
-5.80912
-5.74463
-5.6745
-5.59705
-5.51295
-5.42321
-5.3284
-5.22865
-5.12332
-5.01123
-4.89242
-4.76716
-4.63542
-4.49705
-4.3522
-4.20084
-4.04289
-3.87837
-3.70726
-3.52956
-3.34524
-3.15422
-2.95651
-2.75207
-2.54103
-2.32322
-2.09872
-1.86744
-1.62951
-1.38483
-1.1334
-0.8751
-0.610227
-0.338322
-0.05954
0.226421
0.519136
0.81911
1.12614
1.44021
1.76149
2.08962
2.42468
2.76646
3.11495
3.46965
3.83041
4.19696
4.56903
4.94626
5.32853
5.71618
6.10976
6.51027
6.91716
7.33015
7.73964
8.14754
8.56191
8.97686
9.38627
9.7956
10.2031
10.6048
11.0027
11.3961
11.7832
12.1607
12.5268
12.8806
13.2213
13.5467
13.855
14.1436
14.4141
14.6696
14.9065
15.1216
15.3142
15.4822
15.6285
15.7555
15.852
15.9356
16.0154
16.0864
16.1381
16.1559
16.1582
16.1676
16.1843
16.2065
16.2279
16.2526
-5.45712
-5.46781
-5.47447
-5.47922
-5.4826
-5.48497
-5.48671
-5.48809
-5.48939
-5.49077
-5.49239
-5.49436
-5.49674
-5.49958
-5.50293
-5.5068
-5.51121
-5.51617
-5.52169
-5.52778
-5.53445
-5.54169
-5.5495
-5.55789
-5.56685
-5.57638
-5.58648
-5.59713
-5.60834
-5.6201
-5.63239
-5.64522
-5.65857
-5.67244
-5.68681
-5.70166
-5.71701
-5.73282
-5.74908
-5.76578
-5.7829
-5.80041
-5.8183
-5.83653
-5.85509
-5.87394
-5.89305
-5.91236
-5.93184
-5.95145
-5.97112
-5.9908
-6.01042
-6.02992
-6.04923
-6.06827
-6.08692
-6.10518
-6.12287
-6.13994
-6.15627
-6.17171
-6.18619
-6.19958
-6.21176
-6.22261
-6.23205
-6.23994
-6.2461
-6.25021
-6.25187
-6.25079
-6.24681
-6.23984
-6.22994
-6.21699
-6.20093
-6.18155
-6.15855
-6.13162
-6.10034
-6.06441
-6.02366
-5.97789
-5.92704
-5.87123
-5.81075
-5.74552
-5.67485
-5.59829
-5.51573
-5.42729
-5.33325
-5.23373
-5.12857
-5.01712
-4.89918
-4.7749
-4.64421
-4.50683
-4.36298
-4.21267
-4.05587
-3.89248
-3.72254
-3.54603
-3.36296
-3.17327
-2.97693
-2.77385
-2.56418
-2.34791
-2.12494
-1.89528
-1.65897
-1.41599
-1.16634
-0.909888
-0.646823
-0.376771
-0.0999164
0.184078
0.474876
0.772796
1.07775
1.38985
1.70906
2.03511
2.36819
2.70787
3.05434
3.40713
3.76594
4.1306
4.50087
4.8764
5.25714
5.64337
6.0357
6.43441
6.83842
7.24673
7.65523
8.06376
8.47555
8.88782
9.29679
9.70468
10.1104
10.5115
10.9083
11.3007
11.687
12.0649
12.4321
12.7873
13.1293
13.4563
13.7669
14.059
14.3332
14.5911
14.8301
15.048
15.2435
15.4149
15.5647
15.6938
15.796
15.8819
15.9649
16.0405
16.0962
16.1214
16.1293
16.1397
16.1557
16.174
16.1871
16.1932
-5.44694
-5.45793
-5.46671
-5.47317
-5.47795
-5.48147
-5.48412
-5.48624
-5.48812
-5.48996
-5.49194
-5.49417
-5.49675
-5.49974
-5.5032
-5.50715
-5.51162
-5.51662
-5.52217
-5.52827
-5.53492
-5.54214
-5.54991
-5.55824
-5.56713
-5.57658
-5.58658
-5.59713
-5.60822
-5.61985
-5.63201
-5.64469
-5.6579
-5.67162
-5.68584
-5.70055
-5.71574
-5.73141
-5.74754
-5.76411
-5.7811
-5.79851
-5.8163
-5.83445
-5.85294
-5.87171
-5.89078
-5.91007
-5.92954
-5.94915
-5.96885
-5.98857
-6.00827
-6.02785
-6.04726
-6.0664
-6.0852
-6.10359
-6.12145
-6.13868
-6.15519
-6.17083
-6.18555
-6.19914
-6.21153
-6.22258
-6.23214
-6.24005
-6.24614
-6.2501
-6.25171
-6.25073
-6.24698
-6.24036
-6.23077
-6.2181
-6.20215
-6.1827
-6.15962
-6.13266
-6.10156
-6.06616
-6.02613
-5.98123
-5.93134
-5.87639
-5.81636
-5.75113
-5.68045
-5.60426
-5.52233
-5.43459
-5.3411
-5.24196
-5.137
-5.02585
-4.90844
-4.78482
-4.65467
-4.51812
-4.37498
-4.22553
-4.0695
-3.90696
-3.73792
-3.56241
-3.38032
-3.19167
-2.99638
-2.79446
-2.58601
-2.37094
-2.14925
-1.92103
-1.68616
-1.44471
-1.19652
-0.941655
-0.680305
-0.411883
-0.136721
0.145608
0.434644
0.73083
1.034
1.34432
1.66171
1.98598
2.31733
2.65531
2.99996
3.35103
3.7083
4.07137
4.4402
4.8144
5.19384
5.57883
5.96964
6.36634
6.7682
7.17398
7.58125
7.98944
8.39948
8.80974
9.21809
9.6251
10.0297
10.4306
10.8272
11.2194
11.6057
11.9839
12.3523
12.709
13.0528
13.3818
13.6948
13.9901
14.2676
14.5279
14.7692
14.9896
15.1878
15.3628
15.5161
15.6478
15.7559
15.8471
15.9314
16.0067
16.0631
16.0939
16.108
16.1198
16.1335
16.1458
16.1499
16.1428
-5.43988
-5.45023
-5.46056
-5.46842
-5.47444
-5.47904
-5.48262
-5.48556
-5.48812
-5.49054
-5.49301
-5.49564
-5.49856
-5.50184
-5.50553
-5.50968
-5.51431
-5.51944
-5.5251
-5.53128
-5.538
-5.54526
-5.55306
-5.56141
-5.5703
-5.57973
-5.5897
-5.6002
-5.61125
-5.62282
-5.63491
-5.64754
-5.66067
-5.67431
-5.68846
-5.70311
-5.71823
-5.73384
-5.74993
-5.76645
-5.78342
-5.80078
-5.81857
-5.83672
-5.85521
-5.87402
-5.89311
-5.91246
-5.93202
-5.95172
-5.97151
-5.99136
-6.01116
-6.03092
-6.05048
-6.06979
-6.08877
-6.10734
-6.12538
-6.14282
-6.15951
-6.17536
-6.19026
-6.20405
-6.21663
-6.22783
-6.23751
-6.24552
-6.25164
-6.2556
-6.25728
-6.25641
-6.25285
-6.24644
-6.23698
-6.22437
-6.20846
-6.18907
-6.16601
-6.13907
-6.10815
-6.07298
-6.0332
-5.98881
-5.93937
-5.88481
-5.82511
-5.76004
-5.68952
-5.61351
-5.53191
-5.4445
-5.35129
-5.2523
-5.1475
-5.03652
-4.91936
-4.79603
-4.66639
-4.53024
-4.38763
-4.23869
-4.08331
-3.92139
-3.75307
-3.57832
-3.39697
-3.20908
-3.01472
-2.81383
-2.60635
-2.39237
-2.17181
-1.94481
-1.71131
-1.4712
-1.22443
-0.971007
-0.711043
-0.444199
-0.170526
0.110183
0.397676
0.69218
0.993862
1.30252
1.61827
1.94099
2.27082
2.60727
2.95037
3.30003
3.65572
4.01765
4.38521
4.75831
5.13678
5.52088
5.91053
6.30562
6.70579
7.10973
7.51598
7.92346
8.3322
8.74132
9.14917
9.55567
9.95979
10.3607
10.7576
11.15
11.5367
11.9158
12.2854
12.6436
12.9892
13.3205
13.6361
13.9344
14.2151
14.4779
14.7215
14.9443
15.1454
15.3238
15.4803
15.615
15.728
15.824
15.9095
15.9837
16.0399
16.0743
16.093
16.1059
16.1165
16.1225
16.1181
16.1006
-5.43646
-5.44555
-5.45682
-5.46567
-5.47264
-5.47814
-5.48255
-5.48623
-5.48946
-5.49247
-5.49545
-5.49854
-5.50185
-5.50547
-5.50945
-5.51385
-5.51869
-5.52401
-5.52982
-5.53614
-5.54297
-5.55032
-5.5582
-5.56661
-5.57554
-5.58501
-5.595
-5.60552
-5.61657
-5.62814
-5.64024
-5.65285
-5.66598
-5.67962
-5.69377
-5.70842
-5.72356
-5.73918
-5.75528
-5.77184
-5.78885
-5.80628
-5.82411
-5.84233
-5.86093
-5.87986
-5.89906
-5.91853
-5.93824
-5.95807
-5.97803
-5.99806
-6.01808
-6.03797
-6.05775
-6.07728
-6.09649
-6.11527
-6.13355
-6.15117
-6.16811
-6.18417
-6.19926
-6.21329
-6.22601
-6.23735
-6.24718
-6.25524
-6.26139
-6.26546
-6.26718
-6.26639
-6.26294
-6.25663
-6.24728
-6.23475
-6.21893
-6.19955
-6.17647
-6.14953
-6.11866
-6.0834
-6.0438
-5.99934
-5.95006
-5.89572
-5.8361
-5.77115
-5.70075
-5.6248
-5.54319
-5.45597
-5.36287
-5.26391
-5.15907
-5.04818
-4.93114
-4.80782
-4.67841
-4.54254
-4.40028
-4.2517
-4.09666
-3.9352
-3.76742
-3.59322
-3.41255
-3.22542
-3.03174
-2.83166
-2.62517
-2.41215
-2.19271
-1.96684
-1.73446
-1.4956
-1.25013
-0.998078
-0.73952
-0.474061
-0.201833
0.0774025
0.363387
0.656464
0.956674
1.26383
1.57815
1.89938
2.22775
2.5628
2.90457
3.25286
3.60753
3.96833
4.3349
4.70704
5.08476
5.46816
5.85698
6.25102
6.64991
7.05269
7.4581
7.86502
8.27305
8.68155
9.08914
9.49554
9.89975
10.3011
10.6986
11.0917
11.4792
11.8593
12.2304
12.5904
12.938
13.2716
13.5898
13.8911
14.1747
14.4401
14.686
14.9112
15.1148
15.2961
15.4555
15.5933
15.7103
15.81
15.8966
15.9698
16.0257
16.0623
16.0838
16.0967
16.1041
16.104
16.0918
16.0658
-5.43675
-5.44419
-5.45584
-5.46525
-5.47284
-5.47898
-5.48403
-5.48832
-5.49212
-5.49566
-5.49912
-5.50263
-5.50633
-5.51028
-5.51456
-5.51922
-5.52429
-5.52981
-5.5358
-5.54227
-5.54923
-5.55671
-5.56469
-5.57319
-5.5822
-5.59173
-5.60179
-5.61237
-5.62348
-5.63511
-5.64725
-5.65992
-5.67311
-5.6868
-5.70101
-5.71573
-5.73094
-5.74665
-5.76284
-5.7795
-5.79662
-5.81416
-5.83215
-5.85053
-5.86927
-5.88837
-5.90777
-5.92742
-5.9473
-5.96735
-5.98755
-6.00778
-6.02803
-6.04819
-6.0682
-6.088
-6.10744
-6.12646
-6.14496
-6.16286
-6.18002
-6.1963
-6.21163
-6.22576
-6.23868
-6.2502
-6.26009
-6.26829
-6.27449
-6.27856
-6.28035
-6.27961
-6.2762
-6.26992
-6.26062
-6.24807
-6.23228
-6.21288
-6.18983
-6.16282
-6.13171
-6.09637
-6.05656
-6.01199
-5.96256
-5.90815
-5.8485
-5.78352
-5.71295
-5.63705
-5.55541
-5.46801
-5.37487
-5.2758
-5.17085
-5.05988
-4.94284
-4.81945
-4.68998
-4.5542
-4.41207
-4.26367
-4.10903
-3.9479
-3.78053
-3.6068
-3.42667
-3.24006
-3.04713
-2.84787
-2.64216
-2.43021
-2.21174
-1.98685
-1.75565
-1.518
-1.27385
-1.02307
-0.765778
-0.50172
-0.230899
0.0469797
0.331477
0.623124
0.922044
1.2278
1.54075
1.8606
2.18748
2.52131
2.86193
3.20912
3.56264
3.92247
4.28818
4.65969
5.0369
5.41974
5.80791
6.20148
6.59956
7.00146
7.40641
7.813
8.22083
8.62921
9.03698
9.44376
9.84849
10.2506
10.6491
11.0433
11.4319
11.8134
12.186
12.5479
12.8978
13.2338
13.5545
13.8586
14.1449
14.4129
14.6611
14.8886
15.0946
15.2785
15.4406
15.5811
15.7012
15.8037
15.8911
15.9637
16.0193
16.0569
16.0796
16.0919
16.0959
16.0901
16.0707
16.0378
-5.44044
-5.44607
-5.45762
-5.46717
-5.47505
-5.48157
-5.48703
-5.49175
-5.49598
-5.49994
-5.50378
-5.50766
-5.51169
-5.51594
-5.52049
-5.52539
-5.53068
-5.53639
-5.54255
-5.54918
-5.55628
-5.56388
-5.57197
-5.58059
-5.5897
-5.59934
-5.60949
-5.62016
-5.63135
-5.64308
-5.65533
-5.6681
-5.68138
-5.69519
-5.70953
-5.72438
-5.73972
-5.75558
-5.77192
-5.78874
-5.80602
-5.82378
-5.84195
-5.86052
-5.8795
-5.89881
-5.91843
-5.93832
-5.95847
-5.97879
-5.99921
-6.01971
-6.04023
-6.06067
-6.08093
-6.10096
-6.12072
-6.14
-6.15875
-6.17686
-6.19424
-6.21071
-6.22625
-6.24064
-6.2537
-6.26529
-6.27529
-6.28349
-6.28975
-6.29383
-6.29566
-6.2949
-6.29145
-6.28513
-6.27579
-6.26328
-6.24732
-6.22784
-6.20461
-6.17742
-6.14602
-6.11041
-6.07028
-6.02545
-5.97572
-5.92104
-5.86118
-5.79598
-5.72531
-5.64914
-5.56722
-5.4797
-5.38627
-5.28696
-5.18177
-5.0706
-4.95338
-4.82979
-4.7002
-4.56433
-4.4223
-4.27416
-4.11965
-3.95876
-3.79166
-3.61821
-3.43859
-3.25272
-3.06038
-2.86171
-2.65685
-2.44575
-2.22831
-2.0046
-1.77456
-1.538
-1.29514
-1.04562
-0.789715
-0.526943
-0.257554
0.0189025
0.302005
0.592364
0.889734
1.1941
1.50568
1.82421
2.14994
2.48253
2.8221
3.16815
3.5207
3.87963
4.24472
4.61573
4.99244
5.37498
5.7628
6.15597
6.55368
6.95535
7.35992
7.76662
8.17463
8.58325
8.99153
9.39906
9.80473
10.2079
10.6076
11.0033
11.3935
11.7766
12.1509
12.515
12.8673
13.2056
13.5289
13.8357
14.1247
14.3951
14.6456
14.8754
15.0836
15.2699
15.4342
15.5771
15.6997
15.8041
15.8921
15.9643
16.0193
16.0572
16.08
16.091
16.0914
16.0803
16.0546
16.0155
-5.44706
-5.45086
-5.46189
-5.47122
-5.47908
-5.48569
-5.49135
-5.49632
-5.50083
-5.50506
-5.5092
-5.51335
-5.51763
-5.52212
-5.52689
-5.53199
-5.53746
-5.54334
-5.54965
-5.55642
-5.56366
-5.57139
-5.57961
-5.58834
-5.59757
-5.60732
-5.61758
-5.62839
-5.6397
-5.65156
-5.66394
-5.67685
-5.69028
-5.70426
-5.71876
-5.73378
-5.74933
-5.76538
-5.78193
-5.79897
-5.8165
-5.83445
-5.85289
-5.87174
-5.89095
-5.91052
-5.9304
-5.95059
-5.97101
-5.9916
-6.01231
-6.03311
-6.0539
-6.07462
-6.09516
-6.11546
-6.13549
-6.15496
-6.17399
-6.19233
-6.20989
-6.22655
-6.24225
-6.25672
-6.26989
-6.28158
-6.29159
-6.29982
-6.30607
-6.31011
-6.31189
-6.31104
-6.30747
-6.30109
-6.29164
-6.27891
-6.26278
-6.24306
-6.21957
-6.19201
-6.16034
-6.12434
-6.08373
-6.03854
-5.98832
-5.93326
-5.87294
-5.80738
-5.73633
-5.65971
-5.57753
-5.48964
-5.39593
-5.29639
-5.19069
-5.07915
-4.96173
-4.83799
-4.70819
-4.57219
-4.43013
-4.28195
-4.12756
-3.96683
-3.8001
-3.62701
-3.44781
-3.26246
-3.07084
-2.87293
-2.66894
-2.45867
-2.24219
-2.01962
-1.79068
-1.55542
-1.31369
-1.06561
-0.811058
-0.549659
-0.281729
-0.00662912
0.275114
0.563931
0.859894
1.16289
1.47308
1.79024
2.11477
2.44606
2.78449
3.12952
3.48116
3.83934
4.20375
4.57422
4.95066
5.33297
5.72074
6.11372
6.51144
6.913
7.31784
7.72483
8.13343
8.54269
8.95193
9.36056
9.76751
10.1723
10.5737
10.9711
11.3631
11.748
12.1243
12.4905
12.845
13.1858
13.5119
13.8213
14.1127
14.3856
14.6384
14.8703
15.0806
15.269
15.4353
15.5802
15.7048
15.8105
15.8989
15.9704
16.0249
16.0623
16.0844
16.0935
16.0904
16.0743
16.0426
15.9983
-5.45597
-5.45804
-5.46822
-5.47703
-5.48459
-5.49107
-5.49671
-5.50174
-5.50636
-5.51075
-5.51504
-5.51937
-5.52382
-5.52848
-5.5334
-5.53865
-5.54427
-5.55028
-5.55672
-5.56362
-5.57098
-5.57883
-5.58716
-5.59601
-5.60537
-5.61525
-5.62567
-5.63661
-5.64809
-5.6601
-5.67265
-5.68574
-5.69937
-5.71354
-5.72825
-5.7435
-5.75927
-5.77555
-5.79235
-5.80965
-5.82744
-5.8457
-5.86439
-5.88351
-5.90302
-5.9229
-5.94308
-5.96355
-5.98425
-6.00515
-6.02614
-6.04723
-6.06827
-6.08923
-6.11004
-6.13059
-6.15075
-6.17055
-6.18973
-6.20826
-6.22596
-6.2428
-6.25852
-6.27307
-6.28619
-6.2979
-6.30789
-6.31608
-6.3222
-6.32619
-6.32774
-6.32671
-6.32296
-6.31632
-6.30665
-6.29355
-6.27712
-6.25702
-6.23304
-6.20517
-6.17303
-6.1365
-6.09545
-6.04957
-5.9989
-5.94332
-5.88244
-5.81632
-5.74479
-5.66769
-5.58495
-5.4966
-5.40253
-5.30249
-5.19647
-5.08465
-4.96676
-4.84271
-4.71264
-4.57657
-4.43446
-4.28627
-4.13192
-3.97135
-3.80489
-3.63227
-3.45343
-3.26863
-3.07753
-2.88041
-2.6773
-2.46802
-2.25264
-2.03124
-1.80351
-1.56949
-1.32904
-1.08214
-0.829097
-0.569222
-0.302714
-0.0291864
0.250934
0.538228
0.832824
1.13432
1.4429
1.75874
2.08203
2.41203
2.74929
3.09345
3.44413
3.80148
4.1653
4.5353
4.91148
5.2936
5.68157
6.07446
6.47231
6.87418
7.27945
7.68707
8.09643
8.50685
8.91733
9.32741
9.73615
10.1428
10.5462
10.9456
11.3396
11.7266
12.1054
12.4738
12.8306
13.174
13.5026
13.8145
14.1085
14.3835
14.6385
14.8725
15.0847
15.2749
15.443
15.5895
15.7154
15.8221
15.9105
15.9815
16.0351
16.0716
16.0925
16.0993
16.0925
16.0716
16.0346
15.9853
-5.46651
-5.46703
-5.47613
-5.48417
-5.4912
-5.49734
-5.50277
-5.50769
-5.51228
-5.51667
-5.52101
-5.5254
-5.52994
-5.53468
-5.5397
-5.54504
-5.55076
-5.55687
-5.56341
-5.57041
-5.57788
-5.58584
-5.5943
-5.60327
-5.61277
-5.6228
-5.63336
-5.64447
-5.65611
-5.66831
-5.68105
-5.69436
-5.70821
-5.72262
-5.73755
-5.75304
-5.76909
-5.78564
-5.80271
-5.82029
-5.83839
-5.8569
-5.87589
-5.8953
-5.91512
-5.93528
-5.95577
-5.97652
-5.9975
-6.01865
-6.0399
-6.06121
-6.08247
-6.10363
-6.12466
-6.14538
-6.16567
-6.18557
-6.20485
-6.22348
-6.24123
-6.25807
-6.27377
-6.28823
-6.30133
-6.31289
-6.32271
-6.33068
-6.33661
-6.34026
-6.3416
-6.34034
-6.33625
-6.3293
-6.31908
-6.30567
-6.28883
-6.2682
-6.24368
-6.21521
-6.18245
-6.1453
-6.10358
-6.05705
-6.00575
-5.9495
-5.88798
-5.8213
-5.749
-5.67145
-5.58827
-5.49937
-5.40468
-5.30415
-5.19777
-5.08545
-4.96719
-4.8428
-4.71243
-4.57632
-4.43401
-4.28582
-4.13164
-3.97125
-3.80501
-3.63274
-3.45456
-3.27028
-3.07983
-2.88361
-2.68151
-2.47325
-2.25897
-2.03857
-1.8122
-1.57955
-1.34062
-1.09536
-0.843752
-0.585451
-0.320499
-0.0485948
0.230054
0.515747
0.808515
1.10847
1.41576
1.73021
2.05195
2.38066
2.71669
3.05975
3.40959
3.76603
4.12933
4.49902
4.87486
5.25699
5.64487
6.03801
6.4362
6.83855
7.24435
7.65285
8.06329
8.47509
8.88721
9.29906
9.70993
10.1189
10.5246
10.9262
11.3225
11.712
12.093
12.4639
12.8232
13.1691
13.5002
13.8147
14.1112
14.3884
14.6454
14.8812
15.095
15.2868
15.4564
15.6041
15.7311
15.8383
15.9266
15.9969
16.0493
16.0846
16.1037
16.1079
16.0976
16.0721
16.03
15.976
-5.47803
-5.47723
-5.48507
-5.49217
-5.49849
-5.50411
-5.50917
-5.51383
-5.51824
-5.52252
-5.52679
-5.53115
-5.53567
-5.54042
-5.54547
-5.55086
-5.55661
-5.56279
-5.56941
-5.57649
-5.58406
-5.59212
-5.6007
-5.6098
-5.61943
-5.62962
-5.64034
-5.65162
-5.66345
-5.67586
-5.68882
-5.70234
-5.71641
-5.73107
-5.74628
-5.76202
-5.77832
-5.79513
-5.81249
-5.83034
-5.84868
-5.86751
-5.88679
-5.90647
-5.92651
-5.9469
-5.96764
-5.9886
-6.00976
-6.0311
-6.05257
-6.07397
-6.0954
-6.11666
-6.13776
-6.1585
-6.17884
-6.19871
-6.21796
-6.23647
-6.25411
-6.27087
-6.28639
-6.30067
-6.31349
-6.32478
-6.33432
-6.34192
-6.34752
-6.35077
-6.35164
-6.34987
-6.34534
-6.3379
-6.32723
-6.31319
-6.29569
-6.2745
-6.24927
-6.22013
-6.18668
-6.14876
-6.10636
-6.05912
-6.00707
-5.9501
-5.88786
-5.82048
-5.74764
-5.66932
-5.5855
-5.49607
-5.40086
-5.29981
-5.19296
-5.08024
-4.96163
-4.83704
-4.70643
-4.57001
-4.42763
-4.2796
-4.12549
-3.9653
-3.79941
-3.62781
-3.45
-3.26645
-3.07683
-2.88161
-2.68032
-2.47331
-2.26042
-2.04135
-1.81614
-1.58494
-1.34765
-1.10382
-0.853901
-0.597249
-0.334093
-0.06391
0.212987
0.496703
0.788044
1.08627
1.39209
1.70497
2.02493
2.35228
2.68708
3.02906
3.37781
3.73358
4.0962
4.46536
4.84092
5.22298
5.61083
6.0043
6.40277
6.80577
7.21232
7.62191
8.03372
8.447
8.86105
9.27522
9.68818
10.0997
10.5079
10.9122
11.3112
11.7032
12.0867
12.4602
12.8222
13.1707
13.5044
13.8213
14.12
14.3994
14.6581
14.8957
15.1111
15.3041
15.4748
15.6236
15.7512
15.8586
15.9466
16.0159
16.067
16.1006
16.1176
16.1191
16.1051
16.0752
16.0284
15.9699
-5.48991
-5.48804
-5.49455
-5.50059
-5.50607
-5.51104
-5.51559
-5.51986
-5.52396
-5.528
-5.53209
-5.53631
-5.54073
-5.54542
-5.55043
-5.5558
-5.56157
-5.56777
-5.57444
-5.58158
-5.58923
-5.59738
-5.60607
-5.61529
-5.62506
-5.63539
-5.64628
-5.65774
-5.66977
-5.68237
-5.69554
-5.70928
-5.72359
-5.73846
-5.7539
-5.76988
-5.78641
-5.80347
-5.82105
-5.83913
-5.85769
-5.87671
-5.89616
-5.91601
-5.93622
-5.95676
-5.97758
-5.99864
-6.01989
-6.04127
-6.0627
-6.08413
-6.10547
-6.12668
-6.14762
-6.16823
-6.18844
-6.20811
-6.2271
-6.24531
-6.26269
-6.27905
-6.29417
-6.30807
-6.32047
-6.33131
-6.34036
-6.34749
-6.3525
-6.35526
-6.35552
-6.35315
-6.34801
-6.33984
-6.32853
-6.31383
-6.29562
-6.2736
-6.24776
-6.21785
-6.1836
-6.14498
-6.10173
-6.0538
-6.00094
-5.94317
-5.88022
-5.81208
-5.73854
-5.6596
-5.57517
-5.48503
-5.38923
-5.28785
-5.1806
-5.06751
-4.94862
-4.82375
-4.69294
-4.55638
-4.41421
-4.26633
-4.11258
-3.95262
-3.7872
-3.61596
-3.43907
-3.25637
-3.06755
-2.87347
-2.67329
-2.46742
-2.25599
-2.03826
-1.81464
-1.58509
-1.34947
-1.10753
-0.859418
-0.604392
-0.342994
-0.074632
0.200369
0.482468
0.771786
1.06832
1.37226
1.68345
2.00197
2.32799
2.66138
3.00181
3.34958
3.70436
4.06621
4.4348
4.81006
5.19199
5.57986
5.97347
6.37226
6.77577
7.18316
7.5938
8.00724
8.42217
8.83823
9.25482
9.67037
10.0845
10.4956
10.9029
11.3048
11.6997
12.0859
12.4623
12.8269
13.1782
13.5144
13.8337
14.1345
14.4158
14.6764
14.9155
15.1321
15.3262
15.4979
15.6474
15.7753
15.8825
15.9698
16.038
16.0876
16.1193
16.134
16.1325
16.1149
16.0808
16.0293
15.9667
-5.50227
-5.49917
-5.50431
-5.50922
-5.51377
-5.51797
-5.52188
-5.52562
-5.52928
-5.53296
-5.53675
-5.54073
-5.54496
-5.5495
-5.5544
-5.5597
-5.56543
-5.57162
-5.57829
-5.58547
-5.59316
-5.60139
-5.61017
-5.6195
-5.62939
-5.63985
-5.65089
-5.66249
-5.67468
-5.68744
-5.70078
-5.71469
-5.72916
-5.7442
-5.75979
-5.77592
-5.79259
-5.80977
-5.82747
-5.84563
-5.86426
-5.88332
-5.90278
-5.92262
-5.94279
-5.96326
-5.98398
-6.0049
-6.02597
-6.04713
-6.06833
-6.08949
-6.11053
-6.13139
-6.15197
-6.17218
-6.19192
-6.2111
-6.22961
-6.24732
-6.26412
-6.27988
-6.29446
-6.30772
-6.3195
-6.32966
-6.33805
-6.34448
-6.3488
-6.35083
-6.35039
-6.34731
-6.34139
-6.33248
-6.32038
-6.3049
-6.28587
-6.2631
-6.23643
-6.20566
-6.17064
-6.1312
-6.08721
-6.03849
-5.98492
-5.9264
-5.86275
-5.79393
-5.7198
-5.64027
-5.55525
-5.46465
-5.36842
-5.26653
-5.15893
-5.04559
-4.92652
-4.80157
-4.67073
-4.53437
-4.39231
-4.24454
-4.09106
-3.93184
-3.76697
-3.59642
-3.42027
-3.23844
-3.05095
-2.85789
-2.65913
-2.45472
-2.24456
-2.0286
-1.80673
-1.57891
-1.345
-1.10481
-0.858534
-0.605615
-0.346187
-0.0798516
0.193235
0.473417
0.760829
1.0554
1.35743
1.66677
1.98384
2.30807
2.63991
2.97914
3.32566
3.67941
4.04047
4.40843
4.78328
5.16491
5.5527
5.94632
6.3454
6.74932
7.15751
7.56925
7.98405