/*--------------------------------*- C++ -*----------------------------------*\
  =========                 |
  \\      /  F ield         | OpenFOAM: The Open Source CFD Toolbox
   \\    /   O peration     | Website:  https://openfoam.org
    \\  /    A nd           | Version:  7
     \\/     M anipulation  |
\*---------------------------------------------------------------------------*/
FoamFile
{
    version     2.0;
    format      ascii;
    class       surfaceScalarField;
    location    "500";
    object      phi;
}
// * * * * * * * * * * * * * * * * * * * * * * * * * * * * * * * * * * * * * //

dimensions      [0 3 -1 0 0 0 0];

internalField   nonuniform List<scalar> 
97240
(
-6.49294e-08
2.62321e-08
1.63289e-06
-1.43916e-06
1.36167e-06
7.74891e-08
-1.28664e-06
1.21934e-06
6.73032e-08
-1.16114e-06
1.11566e-06
4.54818e-08
-1.0795e-06
1.05172e-06
2.77827e-08
-1.02888e-06
1.0101e-06
1.87806e-08
-9.93381e-07
9.78625e-07
1.47561e-08
-9.64791e-07
9.52197e-07
1.25934e-08
-9.40217e-07
9.29266e-07
1.09507e-08
-9.18863e-07
9.09388e-07
9.47351e-09
-9.00431e-07
8.92306e-07
8.12457e-09
-8.84642e-07
8.77705e-07
6.93527e-09
-8.71186e-07
8.65308e-07
5.87715e-09
-8.59806e-07
8.54871e-07
4.93386e-09
-8.50288e-07
8.46224e-07
4.06221e-09
-8.4252e-07
8.39335e-07
3.1839e-09
-8.36581e-07
8.3446e-07
2.12055e-09
-8.3307e-07
8.3256e-07
5.09687e-10
-2.06744e-08
1.96607e-08
1.70963e-06
-1.72713e-06
1.73403e-06
-8.86203e-08
8.17246e-08
-1.7382e-06
1.73854e-06
-9.01273e-08
8.97882e-08
-1.73463e-06
1.72698e-06
-7.47999e-08
8.24485e-08
-1.71592e-06
1.70267e-06
-5.73012e-08
7.05416e-08
-1.68748e-06
1.67165e-06
-4.48078e-08
6.0641e-08
-1.65505e-06
1.63875e-06
-3.66853e-08
5.29843e-08
-1.62234e-06
1.60666e-06
-3.10784e-08
4.67542e-08
-1.59118e-06
1.57656e-06
-2.67488e-08
4.13592e-08
-1.56225e-06
1.54883e-06
-2.31414e-08
3.65607e-08
-1.53574e-06
1.52351e-06
-2.0037e-08
3.22699e-08
-1.51161e-06
1.50052e-06
-1.73445e-08
2.84304e-08
-1.48977e-06
1.47977e-06
-1.49775e-08
2.49755e-08
-1.4701e-06
1.46113e-06
-1.28666e-08
2.18292e-08
-1.4525e-06
1.44453e-06
-1.09267e-08
1.88901e-08
-1.43691e-06
1.42994e-06
-9.02846e-09
1.59965e-08
-1.42335e-06
1.41744e-06
-6.90592e-09
1.28162e-08
-1.41202e-06
1.40731e-06
-3.58916e-09
8.29891e-09
-1.82183e-08
1.66442e-08
1.83287e-06
-1.83967e-06
1.84509e-06
-7.53057e-08
6.98817e-08
-1.85006e-06
1.85453e-06
-8.54896e-08
8.10134e-08
-1.85814e-06
1.8606e-06
-8.18995e-08
7.94404e-08
-1.8621e-06
1.86272e-06
-7.31496e-08
7.25207e-08
-1.86264e-06
1.86197e-06
-6.55631e-08
6.62278e-08
-1.86078e-06
1.85918e-06
-5.95064e-08
6.111e-08
-1.85713e-06
1.85475e-06
-5.43457e-08
5.67251e-08
-1.85196e-06
1.8489e-06
-4.95915e-08
5.26512e-08
-1.84546e-06
1.84182e-06
-4.50868e-08
4.8731e-08
-1.83784e-06
1.83372e-06
-4.08185e-08
4.49354e-08
-1.82932e-06
1.82485e-06
-3.67943e-08
4.12619e-08
-1.82016e-06
1.81547e-06
-3.30014e-08
3.76934e-08
-1.81061e-06
1.80582e-06
-2.9403e-08
3.41931e-08
-1.80093e-06
1.79617e-06
-2.59196e-08
3.06815e-08
-1.79137e-06
1.78676e-06
-2.23922e-08
2.6997e-08
-1.78219e-06
1.77786e-06
-1.84738e-08
2.28025e-08
-1.7736e-06
1.76946e-06
-1.32538e-08
1.73867e-08
-1.51381e-08
1.38456e-08
1.964e-06
-1.96903e-06
1.97359e-06
-6.51731e-08
6.0606e-08
-1.97779e-06
1.9817e-06
-7.70011e-08
7.30818e-08
-1.98525e-06
1.98811e-06
-7.67196e-08
7.38509e-08
-1.99045e-06
1.99229e-06
-7.10393e-08
6.92025e-08
-1.99379e-06
1.995e-06
-6.55447e-08
6.434e-08
-1.99601e-06
1.99684e-06
-6.09392e-08
6.0108e-08
-1.99755e-06
1.99813e-06
-5.69424e-08
5.63635e-08
-1.99861e-06
1.99898e-06
-5.32131e-08
5.28401e-08
-1.99926e-06
1.99945e-06
-4.9615e-08
4.94257e-08
-1.99955e-06
1.99957e-06
-4.61163e-08
4.60928e-08
-1.99952e-06
1.9994e-06
-4.27068e-08
4.28297e-08
-1.9992e-06
1.99895e-06
-3.93611e-08
3.96086e-08
-1.99865e-06
1.9983e-06
-3.60339e-08
3.63812e-08
-1.9979e-06
1.99748e-06
-3.26377e-08
3.30573e-08
-1.99702e-06
1.99655e-06
-2.90047e-08
2.94741e-08
-1.99605e-06
1.99551e-06
-2.48207e-08
2.53579e-08
-1.99486e-06
1.99407e-06
-1.95606e-08
2.03553e-08
-1.26431e-08
1.15858e-08
2.10466e-06
-2.1086e-06
2.1127e-06
-5.64176e-08
5.23102e-08
-2.11663e-06
2.12029e-06
-6.94519e-08
6.57907e-08
-2.12368e-06
2.12654e-06
-7.10851e-08
6.82211e-08
-2.12901e-06
2.13105e-06
-6.73058e-08
6.52581e-08
-2.13285e-06
2.13441e-06
-6.29647e-08
6.14093e-08
-2.13583e-06
2.13711e-06
-5.90297e-08
5.7751e-08
-2.13832e-06
2.13943e-06
-5.5473e-08
5.43635e-08
-2.14049e-06
2.14148e-06
-5.20929e-08
5.11072e-08
-2.14243e-06
2.14331e-06
-4.8799e-08
4.79136e-08
-2.14417e-06
2.14497e-06
-4.55688e-08
4.47655e-08
-2.14576e-06
2.14649e-06
-4.23911e-08
4.16527e-08
-2.14722e-06
2.14791e-06
-3.92378e-08
3.85482e-08
-2.14859e-06
2.14925e-06
-3.60607e-08
3.54053e-08
-2.1499e-06
2.15053e-06
-3.27716e-08
3.2141e-08
-2.15116e-06
2.15176e-06
-2.92199e-08
2.86218e-08
-2.15233e-06
2.15284e-06
-2.51793e-08
2.46716e-08
-2.15325e-06
2.1535e-06
-2.0432e-08
2.01792e-08
-1.05903e-08
9.71083e-09
2.25548e-06
-2.25864e-06
2.26229e-06
-4.85537e-08
4.49034e-08
-2.26598e-06
2.26949e-06
-6.2328e-08
5.88166e-08
-2.27282e-06
2.2757e-06
-6.54466e-08
6.2562e-08
-2.27826e-06
2.28044e-06
-6.3214e-08
6.10309e-08
-2.28241e-06
2.28414e-06
-5.9815e-08
5.80808e-08
-2.28576e-06
2.28723e-06
-5.6411e-08
5.49352e-08
-2.28865e-06
2.28997e-06
-5.31767e-08
5.18565e-08
-2.29126e-06
2.29247e-06
-5.00298e-08
4.88187e-08
-2.29366e-06
2.29478e-06
-4.69226e-08
4.57965e-08
-2.29589e-06
2.29695e-06
-4.38439e-08
4.27854e-08
-2.298e-06
2.29901e-06
-4.07851e-08
3.97794e-08
-2.30001e-06
2.30097e-06
-3.77207e-08
3.67552e-08
-2.30194e-06
2.30287e-06
-3.46067e-08
3.36728e-08
-2.30381e-06
2.30471e-06
-3.13674e-08
3.04652e-08
-2.30561e-06
2.30646e-06
-2.78881e-08
2.70383e-08
-2.30728e-06
2.30801e-06
-2.40378e-08
2.33023e-08
-2.30866e-06
2.30917e-06
-1.97793e-08
1.92727e-08
-8.88239e-09
8.1493e-09
2.41713e-06
-2.41967e-06
2.42287e-06
-4.1598e-08
3.84054e-08
-2.42627e-06
2.4296e-06
-5.55066e-08
5.21766e-08
-2.43283e-06
2.43572e-06
-5.97676e-08
5.68753e-08
-2.43836e-06
2.44067e-06
-5.88609e-08
5.6555e-08
-2.44278e-06
2.44467e-06
-5.63304e-08
5.44422e-08
-2.44645e-06
2.44808e-06
-5.34338e-08
5.18033e-08
-2.44965e-06
2.45112e-06
-5.05068e-08
4.90366e-08
-2.45256e-06
2.45392e-06
-4.75744e-08
4.62156e-08
-2.45526e-06
2.45653e-06
-4.46333e-08
4.33599e-08
-2.45779e-06
2.459e-06
-4.16869e-08
4.04815e-08
-2.4602e-06
2.46135e-06
-3.8732e-08
3.75816e-08
-2.46249e-06
2.4636e-06
-3.57483e-08
3.46434e-08
-2.4647e-06
2.46577e-06
-3.27006e-08
3.16373e-08
-2.46683e-06
2.46784e-06
-2.95313e-08
2.85164e-08
-2.46884e-06
2.46978e-06
-2.61658e-08
2.52248e-08
-2.47069e-06
2.4715e-06
-2.2548e-08
2.17351e-08
-2.47223e-06
2.47284e-06
-1.87264e-08
1.81161e-08
-7.45787e-09
6.84521e-09
2.59041e-06
-2.59257e-06
2.59534e-06
-3.55334e-08
3.27691e-08
-2.59842e-06
2.60152e-06
-4.90686e-08
4.59697e-08
-2.60461e-06
2.60745e-06
-5.40974e-08
5.12518e-08
-2.61012e-06
2.61251e-06
-5.42814e-08
5.18909e-08
-2.61475e-06
2.61677e-06
-5.2551e-08
5.05297e-08
-2.61869e-06
2.62046e-06
-5.01592e-08
4.83882e-08
-2.62217e-06
2.62378e-06
-4.75507e-08
4.59458e-08
-2.62535e-06
2.62684e-06
-4.48407e-08
4.33539e-08
-2.6283e-06
2.6297e-06
-4.20698e-08
4.06741e-08
-2.63108e-06
2.6324e-06
-3.92596e-08
3.79378e-08
-2.63372e-06
2.63498e-06
-3.64158e-08
3.5156e-08
-2.63623e-06
2.63744e-06
-3.35259e-08
3.23214e-08
-2.63864e-06
2.63979e-06
-3.05664e-08
2.94169e-08
-2.64093e-06
2.64201e-06
-2.75005e-08
2.64165e-08
-2.64308e-06
2.64407e-06
-2.42892e-08
2.32963e-08
-2.64502e-06
2.64588e-06
-2.09267e-08
2.00676e-08
-2.64667e-06
2.64734e-06
-1.74921e-08
1.68135e-08
-6.26592e-09
5.7514e-09
2.77621e-06
-2.7779e-06
2.78029e-06
-3.02877e-08
2.79006e-08
-2.78305e-06
2.78591e-06
-4.30962e-08
4.02449e-08
-2.78882e-06
2.79156e-06
-4.85462e-08
4.57984e-08
-2.7942e-06
2.79662e-06
-4.95617e-08
4.71415e-08
-2.79893e-06
2.80104e-06
-4.85271e-08
4.64118e-08
-2.80308e-06
2.80496e-06
-4.66185e-08
4.47315e-08
-2.8068e-06
2.80852e-06
-4.43362e-08
4.26124e-08
-2.81021e-06
2.81182e-06
-4.18609e-08
4.02587e-08
-2.8134e-06
2.8149e-06
-3.9272e-08
3.77664e-08
-2.8164e-06
2.81782e-06
-3.66103e-08
3.51853e-08
-2.81924e-06
2.82059e-06
-3.38926e-08
3.25383e-08
-2.82194e-06
2.82323e-06
-3.11167e-08
2.98287e-08
-2.8245e-06
2.82572e-06
-2.82722e-08
2.7053e-08
-2.82693e-06
2.82807e-06
-2.53425e-08
2.42039e-08
-2.82918e-06
2.83021e-06
-2.23168e-08
2.12816e-08
-2.8312e-06
2.8321e-06
-1.92182e-08
1.83178e-08
-2.83294e-06
2.83368e-06
-1.61293e-08
1.53917e-08
-5.26322e-09
4.82814e-09
2.97533e-06
-2.97683e-06
2.97889e-06
-2.57577e-08
2.36937e-08
-2.98137e-06
2.98398e-06
-3.76093e-08
3.49997e-08
-2.9867e-06
2.98932e-06
-4.32024e-08
4.05779e-08
-2.9919e-06
2.9943e-06
-4.48069e-08
4.24003e-08
-2.99663e-06
2.9988e-06
-4.43396e-08
4.21724e-08
-3.00091e-06
3.00287e-06
-4.28654e-08
4.08956e-08
-3.0048e-06
3.00662e-06
-4.08991e-08
3.9081e-08
-3.00841e-06
3.01011e-06
-3.86625e-08
3.69638e-08
-3.01179e-06
3.01339e-06
-3.62649e-08
3.4665e-08
-3.01497e-06
3.01649e-06
-3.37644e-08
3.22502e-08
-3.01799e-06
3.01943e-06
-3.11895e-08
2.97535e-08
-3.02085e-06
3.02221e-06
-2.8549e-08
2.71896e-08
-3.02356e-06
3.02484e-06
-2.58459e-08
2.45672e-08
-3.0261e-06
3.02728e-06
-2.30806e-08
2.18943e-08
-3.02844e-06
3.02951e-06
-2.02624e-08
1.91872e-08
-3.03054e-06
3.03149e-06
-1.74283e-08
1.64861e-08
-3.03237e-06
3.03317e-06
-1.46523e-08
1.38591e-08
-4.41386e-09
4.04331e-09
3.18877e-06
-3.19004e-06
3.19183e-06
-2.18376e-08
2.00453e-08
-3.19404e-06
3.19642e-06
-3.25908e-08
3.02075e-08
-3.19895e-06
3.20145e-06
-3.81065e-08
3.56138e-08
-3.20394e-06
3.20631e-06
-4.00927e-08
3.77245e-08
-3.20864e-06
3.21082e-06
-4.00663e-08
3.78772e-08
-3.21297e-06
3.21499e-06
-3.89645e-08
3.69406e-08
-3.21698e-06
3.21887e-06
-3.72895e-08
3.54024e-08
-3.22074e-06
3.22251e-06
-3.52852e-08
3.3512e-08
-3.22427e-06
3.22594e-06
-3.30816e-08
3.14067e-08
-3.2276e-06
3.22919e-06
-3.07512e-08
2.9165e-08
-3.23076e-06
3.23226e-06
-2.83332e-08
2.68311e-08
-3.23375e-06
3.23517e-06
-2.58471e-08
2.44296e-08
-3.23657e-06
3.2379e-06
-2.33075e-08
2.19799e-08
-3.2392e-06
3.24043e-06
-2.07282e-08
1.95011e-08
-3.24163e-06
3.24274e-06
-1.81308e-08
1.70187e-08
-3.24381e-06
3.24479e-06
-1.55566e-08
1.45739e-08
-3.24572e-06
3.24657e-06
-1.30676e-08
1.22226e-08
-3.7399e-09
3.46232e-09
2.87068e-06
-2.87159e-06
2.87292e-06
-1.8429e-08
1.71023e-08
-2.87459e-06
2.87643e-06
-2.80079e-08
2.61662e-08
-2.87842e-06
2.88042e-06
-3.32703e-08
3.12762e-08
-2.88245e-06
2.8844e-06
-3.54611e-08
3.35069e-08
-2.88634e-06
2.88819e-06
-3.57595e-08
3.39114e-08
-2.89002e-06
2.89175e-06
-3.49671e-08
3.32328e-08
-2.89346e-06
2.8951e-06
-3.35538e-08
3.19224e-08
-2.89671e-06
2.89825e-06
-3.17703e-08
3.02298e-08
-2.89978e-06
2.90124e-06
-2.97595e-08
2.83009e-08
-2.90269e-06
2.90407e-06
-2.76046e-08
2.62227e-08
-2.90544e-06
2.90675e-06
-2.53543e-08
2.40472e-08
-2.90804e-06
2.90927e-06
-2.30376e-08
2.18068e-08
-2.91049e-06
2.91163e-06
-2.06782e-08
1.95286e-08
-2.91276e-06
2.91382e-06
-1.82993e-08
1.72384e-08
-2.91486e-06
2.91582e-06
-1.59286e-08
1.49655e-08
-2.91675e-06
2.91761e-06
-1.36067e-08
1.27489e-08
-2.91843e-06
2.91918e-06
-1.13835e-08
1.06339e-08
-3.15723e-09
2.87938e-09
3.49938e-06
-3.50031e-06
3.50167e-06
-1.58829e-08
1.45215e-08
-3.50342e-06
3.50537e-06
-2.44447e-08
2.24919e-08
-3.50751e-06
3.50969e-06
-2.93849e-08
2.72061e-08
-3.51194e-06
3.51413e-06
-3.16292e-08
2.94367e-08
-3.51633e-06
3.51845e-06
-3.21184e-08
3.00031e-08
-3.52055e-06
3.52256e-06
-3.15394e-08
2.95279e-08
-3.52456e-06
3.52647e-06
-3.03235e-08
2.84164e-08
-3.52836e-06
3.53017e-06
-2.8717e-08
2.69086e-08
-3.53197e-06
3.53368e-06
-2.68673e-08
2.51522e-08
-3.53539e-06
3.53701e-06
-2.48643e-08
2.32392e-08
-3.53862e-06
3.54016e-06
-2.27631e-08
2.12276e-08
-3.54168e-06
3.54312e-06
-2.05988e-08
1.91556e-08
-3.54454e-06
3.54589e-06
-1.84012e-08
1.70555e-08
-3.54721e-06
3.54845e-06
-1.61984e-08
1.49572e-08
-3.54966e-06
3.55079e-06
-1.40204e-08
1.28909e-08
-3.55188e-06
3.55289e-06
-1.19044e-08
1.08918e-08
-3.55387e-06
3.55476e-06
-9.89142e-09
8.99624e-09
-2.57499e-09
2.2991e-09
4.26568e-06
-4.26661e-06
4.26799e-06
-1.32795e-08
1.19022e-08
-4.26978e-06
4.27182e-06
-2.06816e-08
1.86443e-08
-4.27409e-06
4.27643e-06
-2.51551e-08
2.28102e-08
-4.27889e-06
4.28131e-06
-2.73442e-08
2.49182e-08
-4.28378e-06
4.28617e-06
-2.79631e-08
2.55717e-08
-4.28857e-06
4.29088e-06
-2.75741e-08
2.52662e-08
-4.29318e-06
4.29539e-06
-2.6556e-08
2.43479e-08
-4.29759e-06
4.29969e-06
-2.51403e-08
2.30361e-08
-4.30179e-06
4.30379e-06
-2.34734e-08
2.14735e-08
-4.30577e-06
4.30767e-06
-2.16485e-08
1.97532e-08
-4.30955e-06
4.31133e-06
-1.97255e-08
1.79367e-08
-4.3131e-06
4.31478e-06
-1.77449e-08
1.60664e-08
-4.31644e-06
4.318e-06
-1.57411e-08
1.4178e-08
-4.31953e-06
4.32097e-06
-1.37448e-08
1.23028e-08
-4.32238e-06
4.3237e-06
-1.17862e-08
1.04703e-08
-4.32497e-06
4.32616e-06
-9.89821e-09
8.71061e-09
-4.32731e-06
4.32837e-06
-8.11302e-09
7.05187e-09
-1.99765e-09
1.72503e-09
5.19997e-06
-5.2008e-06
5.20218e-06
-1.06531e-08
9.27415e-09
-5.204e-06
5.20609e-06
-1.67685e-08
1.46693e-08
-5.20847e-06
5.21096e-06
-2.06179e-08
1.8127e-08
-5.21361e-06
5.21626e-06
-2.26183e-08
1.99686e-08
-5.21898e-06
5.22165e-06
-2.32796e-08
2.0609e-08
-5.22436e-06
5.22698e-06
-2.30367e-08
2.04178e-08
-5.22961e-06
5.23214e-06
-2.2204e-08
1.96722e-08
-5.23467e-06
5.2371e-06
-2.09872e-08
1.85598e-08
-5.23952e-06
5.24183e-06
-1.95236e-08
1.72098e-08
-5.24413e-06
5.24632e-06
-1.79049e-08
1.57104e-08
-5.2485e-06
5.25057e-06
-1.61928e-08
1.41226e-08
-5.25262e-06
5.25456e-06
-1.44309e-08
1.249e-08
-5.25647e-06
5.25827e-06
-1.26554e-08
1.08486e-08
-5.26005e-06
5.26172e-06
-1.08976e-08
9.22911e-09
-5.26335e-06
5.26487e-06
-9.18587e-09
7.65794e-09
-5.26636e-06
5.26775e-06
-7.54772e-09
6.15981e-09
-5.26909e-06
5.27035e-06
-6.00772e-09
4.75563e-09
-1.42673e-09
1.15599e-09
6.33857e-06
-6.33959e-06
6.34096e-06
-8.02639e-09
6.64891e-09
-6.3428e-06
6.34495e-06
-1.27439e-08
1.05928e-08
-6.34742e-06
6.35005e-06
-1.58094e-08
1.31845e-08
-6.35287e-06
6.35574e-06
-1.747e-08
1.46034e-08
-6.35872e-06
6.36168e-06
-1.80631e-08
1.51105e-08
-6.36469e-06
6.36764e-06
-1.79008e-08
1.4958e-08
-6.37061e-06
6.37349e-06
-1.72254e-08
1.43485e-08
-6.37637e-06
6.37915e-06
-1.6206e-08
1.34283e-08
-6.38193e-06
6.38458e-06
-1.49619e-08
1.23038e-08
-6.38723e-06
6.38975e-06
-1.35768e-08
1.10511e-08
-6.39226e-06
6.39464e-06
-1.21094e-08
9.72511e-09
-6.397e-06
6.39924e-06
-1.06025e-08
8.36621e-09
-6.40144e-06
6.40352e-06
-9.09109e-09
7.00745e-09
-6.40557e-06
6.4075e-06
-7.60444e-09
5.67585e-09
-6.40939e-06
6.41116e-06
-6.16719e-09
4.39364e-09
-6.41289e-06
6.41451e-06
-4.80132e-09
3.17983e-09
-6.41609e-06
6.41757e-06
-3.52476e-09
2.04923e-09
-8.56915e-10
5.81447e-10
7.72728e-06
-7.72739e-06
7.72878e-06
-5.39754e-09
4.00447e-09
-7.73066e-06
7.73288e-06
-8.61667e-09
6.39614e-09
-7.73546e-06
7.73824e-06
-1.0743e-08
7.96887e-09
-7.74126e-06
7.74435e-06
-1.19054e-08
8.80676e-09
-7.74761e-06
7.75087e-06
-1.23038e-08
9.05066e-09
-7.75422e-06
7.75751e-06
-1.21389e-08
8.84816e-09
-7.76085e-06
7.7641e-06
-1.15775e-08
8.32593e-09
-7.76738e-06
7.77054e-06
-1.07432e-08
7.58122e-09
-7.77371e-06
7.77675e-06
-9.72842e-09
6.68869e-09
-7.77978e-06
7.78267e-06
-8.60085e-09
5.70447e-09
-7.78555e-06
7.78829e-06
-7.41008e-09
4.67072e-09
-7.791e-06
7.79357e-06
-6.19337e-09
3.61969e-09
-7.79611e-06
7.79852e-06
-4.98092e-09
2.5775e-09
-7.80088e-06
7.80311e-06
-3.79719e-09
1.56515e-09
-7.8053e-06
7.80736e-06
-2.66195e-09
5.99394e-10
-7.80938e-06
7.81128e-06
-1.59154e-09
-3.06391e-10
-7.81314e-06
7.81488e-06
-5.98274e-10
-1.14256e-09
-2.69698e-10
-2.76062e-11
9.4193e-06
-9.42024e-06
9.42171e-06
-2.71976e-09
1.25642e-09
-9.42369e-06
9.42606e-06
-4.33183e-09
1.96708e-09
-9.42883e-06
9.43183e-06
-5.36643e-09
2.36433e-09
-9.43512e-06
9.43853e-06
-5.87399e-09
2.46774e-09
-9.44214e-06
9.44576e-06
-5.948e-09
2.32318e-09
-9.44952e-06
9.45322e-06
-5.69053e-09
1.98425e-09
-9.45701e-06
9.4607e-06
-5.19197e-09
1.50075e-09
-9.46443e-06
9.46804e-06
-4.52408e-09
9.14525e-10
-9.47166e-06
9.47514e-06
-3.74352e-09
2.60236e-10
-9.47862e-06
9.48195e-06
-2.89408e-09
-4.33993e-10
-9.48526e-06
9.48841e-06
-2.00957e-09
-1.14522e-09
-9.49154e-06
9.49451e-06
-1.11657e-09
-1.8544e-09
-9.49744e-06
9.50022e-06
-2.36617e-10
-2.5459e-09
-9.50297e-06
9.50556e-06
6.12953e-10
-3.20695e-09
-9.50811e-06
9.51052e-06
1.41827e-09
-3.82707e-09
-9.51289e-06
9.51511e-06
2.16861e-09
-4.39846e-09
-9.5173e-06
9.51936e-06
2.85644e-09
-4.91595e-09
3.82479e-10
-7.46965e-10
1.14824e-05
-1.14824e-05
1.14841e-05
1.40256e-10
-1.81122e-09
-1.14864e-05
1.14891e-05
2.97876e-10
-3.0078e-09
-1.14923e-05
1.14957e-05
5.22002e-10
-3.97586e-09
-1.14995e-05
1.15034e-05
8.19198e-10
-4.75208e-09
-1.15076e-05
1.15118e-05
1.1856e-09
-5.38266e-09
-1.15162e-05
1.15205e-05
1.61203e-09
-5.91168e-09
-1.15248e-05
1.15291e-05
2.08713e-09
-6.37424e-09
-1.15335e-05
1.15377e-05
2.59815e-09
-6.793e-09
-1.15419e-05
1.15459e-05
3.13242e-09
-7.18208e-09
-1.155e-05
1.15538e-05
3.67775e-09
-7.54875e-09
-1.15577e-05
1.15614e-05
4.22239e-09
-7.89487e-09
-1.1565e-05
1.15685e-05
4.75507e-09
-8.21854e-09
-1.15719e-05
1.15751e-05
5.26614e-09
-8.51717e-09
-1.15783e-05
1.15814e-05
5.74727e-09
-8.78752e-09
-1.15844e-05
1.15872e-05
6.19113e-09
-9.02571e-09
-1.159e-05
1.15926e-05
6.59246e-09
-9.22921e-09
-1.15952e-05
1.15977e-05
6.94794e-09
-9.39662e-09
1.03168e-09
-1.33938e-09
8.40631e-06
-8.40613e-06
8.40746e-06
3.52074e-09
-4.85003e-09
-8.40926e-06
8.41139e-06
5.76917e-09
-7.89981e-09
-8.41387e-06
8.41654e-06
7.47702e-09
-1.01518e-08
-8.41946e-06
8.42246e-06
8.71687e-09
-1.17156e-08
-8.42562e-06
8.42877e-06
9.59143e-09
-1.27451e-08
-8.43202e-06
8.43521e-06
1.02029e-08
-1.33924e-08
-8.43845e-06
8.44159e-06
1.06358e-08
-1.3782e-08
-8.44476e-06
8.44781e-06
1.09492e-08
-1.40015e-08
-8.45087e-06
8.45379e-06
1.11845e-08
-1.4112e-08
-8.45671e-06
8.45949e-06
1.13679e-08
-1.41532e-08
-8.46226e-06
8.46489e-06
1.15143e-08
-1.41488e-08
-8.4675e-06
8.46998e-06
1.16307e-08
-1.41114e-08
-8.47244e-06
8.47476e-06
1.17208e-08
-1.40488e-08
-8.47706e-06
8.47924e-06
1.17859e-08
-1.39648e-08
-8.48139e-06
8.48342e-06
1.1825e-08
-1.38601e-08
-8.48543e-06
8.48733e-06
1.18377e-08
-1.37357e-08
-8.4892e-06
8.49096e-06
1.18243e-08
-1.35925e-08
1.63649e-09
-1.97012e-09
7.31733e-06
-7.31818e-06
7.31956e-06
6.2845e-09
-7.66093e-09
-7.3214e-06
7.32356e-06
1.01782e-08
-1.23374e-08
-7.32604e-06
7.32868e-06
1.29788e-08
-1.5618e-08
-7.33152e-06
7.3344e-06
1.48471e-08
-1.77278e-08
-7.33739e-06
7.34035e-06
1.60023e-08
-1.89585e-08
-7.34336e-06
7.34629e-06
1.66556e-08
-1.95838e-08
-7.34924e-06
7.35208e-06
1.69762e-08
-1.98164e-08
-7.35492e-06
7.35764e-06
1.70817e-08
-1.98014e-08
-7.36034e-06
7.36292e-06
1.70529e-08
-1.9636e-08
-7.36549e-06
7.36793e-06
1.69421e-08
-1.93825e-08
-7.37034e-06
7.37264e-06
1.67808e-08
-1.90779e-08
-7.37491e-06
7.37707e-06
1.65862e-08
-1.87425e-08
-7.3792e-06
7.38122e-06
1.63694e-08
-1.83892e-08
-7.38321e-06
7.3851e-06
1.61363e-08
-1.80254e-08
-7.38696e-06
7.38872e-06
1.58888e-08
-1.76534e-08
-7.39046e-06
7.39211e-06
1.56286e-08
-1.72755e-08
-7.39373e-06
7.39527e-06
1.53574e-08
-1.68935e-08
2.30163e-09
-2.68198e-09
6.37038e-06
-6.37131e-06
6.37283e-06
9.19783e-09
-1.07136e-08
-6.37483e-06
6.37713e-06
1.47141e-08
-1.70176e-08
-6.37973e-06
6.38245e-06
1.8474e-08
-2.11879e-08
-6.38532e-06
6.38817e-06
2.07934e-08
-2.3652e-08
-6.3911e-06
6.39394e-06
2.20575e-08
-2.48991e-08
-6.39679e-06
6.39953e-06
2.26147e-08
-2.53558e-08
-6.40226e-06
6.40486e-06
2.2727e-08
-2.5331e-08
-6.40745e-06
6.4099e-06
2.25673e-08
-2.50219e-08
-6.41233e-06
6.41463e-06
2.22484e-08
-2.45535e-08
-6.41691e-06
6.41907e-06
2.18409e-08
-2.40013e-08
-6.4212e-06
6.42322e-06
2.13857e-08
-2.3408e-08
-6.42522e-06
6.42711e-06
2.09047e-08
-2.27961e-08
-6.42897e-06
6.43074e-06
2.04124e-08
-2.21799e-08
-6.43248e-06
6.43413e-06
1.99165e-08
-2.15673e-08
-6.43576e-06
6.4373e-06
1.94195e-08
-2.09606e-08
-6.43882e-06
6.44026e-06
1.89239e-08
-2.0362e-08
-6.44167e-06
6.44302e-06
1.84314e-08
-1.9773e-08
3.06608e-09
-3.51062e-09
5.54544e-06
-5.54752e-06
5.54925e-06
1.24434e-08
-1.41789e-08
-5.5515e-06
5.55403e-06
1.95946e-08
-2.21196e-08
-5.55681e-06
5.55966e-06
2.41603e-08
-2.70059e-08
-5.5626e-06
5.56547e-06
2.67203e-08
-2.95944e-08
-5.56836e-06
5.57111e-06
2.78954e-08
-3.06496e-08
-5.57384e-06
5.57641e-06
2.82046e-08
-3.07837e-08
-5.57895e-06
5.58134e-06
2.80072e-08
-3.04023e-08
-5.5837e-06
5.58592e-06
2.75243e-08
-2.97453e-08
-5.5881e-06
5.59016e-06
2.68899e-08
-2.89516e-08
-5.59219e-06
5.5941e-06
2.61823e-08
-2.8099e-08
-5.59599e-06
5.59777e-06
2.5444e-08
-2.72282e-08
-5.59953e-06
5.60119e-06
2.46965e-08
-2.63584e-08
-5.60283e-06
5.60438e-06
2.39535e-08
-2.5502e-08
-5.6059e-06
5.60734e-06
2.32223e-08
-2.46654e-08
-5.60877e-06
5.61011e-06
2.25045e-08
-2.38495e-08
-5.61143e-06
5.61269e-06
2.18021e-08
-2.30556e-08
-5.61392e-06
5.61509e-06
2.11163e-08
-2.22846e-08
3.95993e-09
-4.47426e-09
4.82851e-06
-4.8298e-06
4.83183e-06
1.61863e-08
-1.82218e-08
-4.83439e-06
4.83718e-06
2.49611e-08
-2.77502e-08
-4.84018e-06
4.84317e-06
3.0133e-08
-3.31271e-08
-4.8462e-06
4.84908e-06
3.26815e-08
-3.55666e-08
-4.85192e-06
4.85457e-06
3.35511e-08
-3.62079e-08
-4.85716e-06
4.85956e-06
3.34586e-08
-3.5868e-08
-4.8619e-06
4.86409e-06
3.28575e-08
-3.50421e-08
-4.86621e-06
4.8682e-06
3.20029e-08
-3.39945e-08
-4.87015e-06
4.87198e-06
3.10351e-08
-3.28621e-08
-4.87376e-06
4.87545e-06
3.00281e-08
-3.17126e-08
-4.8771e-06
4.87866e-06
2.90185e-08
-3.05769e-08
-4.88019e-06
4.88163e-06
2.80222e-08
-2.94668e-08
-4.88305e-06
4.88439e-06
2.70494e-08
-2.83901e-08
-4.88571e-06
4.88695e-06
2.61052e-08
-2.73503e-08
-4.88818e-06
4.88933e-06
2.51896e-08
-2.63463e-08
-4.89047e-06
4.89155e-06
2.43031e-08
-2.53783e-08
-4.8926e-06
4.8936e-06
2.34463e-08
-2.44458e-08
4.98003e-09
-5.52796e-09
4.20355e-06
-4.20412e-06
4.20655e-06
2.05973e-08
-2.30193e-08
-4.20945e-06
4.21251e-06
3.08829e-08
-3.39395e-08
-4.21572e-06
4.21884e-06
3.64087e-08
-3.95301e-08
-4.22191e-06
4.22476e-06
3.86494e-08
-4.15034e-08
-4.2275e-06
4.23002e-06
3.89876e-08
-4.1504e-08
-4.23242e-06
4.23462e-06
3.83461e-08
-4.05497e-08
-4.23674e-06
4.23868e-06
3.72608e-08
-3.92089e-08
-4.24056e-06
4.24231e-06
3.59996e-08
-3.77452e-08
-4.244e-06
4.24558e-06
3.46906e-08
-3.62734e-08
-4.24712e-06
4.24857e-06
3.33916e-08
-3.48388e-08
-4.24998e-06
4.25131e-06
3.21252e-08
-3.34552e-08
-4.25262e-06
4.25384e-06
3.08981e-08
-3.21235e-08
-4.25504e-06
4.25617e-06
2.9715e-08
-3.08457e-08
-4.25728e-06
4.25832e-06
2.85777e-08
-2.96217e-08
-4.25935e-06
4.26031e-06
2.74841e-08
-2.84487e-08
-4.26126e-06
4.26215e-06
2.64336e-08
-2.73254e-08
-4.26302e-06
4.26385e-06
2.5425e-08
-2.62502e-08
6.0154e-09
-6.44847e-09
3.65843e-06
-3.66148e-06
3.66437e-06
2.5857e-08
-2.87489e-08
-3.66761e-06
3.67089e-06
3.73447e-08
-4.06315e-08
-3.67427e-06
3.67746e-06
4.29209e-08
-4.61083e-08
-3.6805e-06
3.68325e-06
4.45174e-08
-4.72714e-08
-3.68584e-06
3.68815e-06
4.41016e-08
-4.64222e-08
-3.69033e-06
3.69229e-06
4.27843e-08
-4.47452e-08
-3.69414e-06
3.69583e-06
4.11598e-08
-4.28494e-08
-3.69744e-06
3.69893e-06
3.94785e-08
-4.09652e-08
-3.70036e-06
3.70169e-06
3.78357e-08
-3.91647e-08
-3.70297e-06
3.70417e-06
3.62602e-08
-3.74603e-08
-3.70534e-06
3.70643e-06
3.47553e-08
-3.58448e-08
-3.70749e-06
3.70848e-06
3.33159e-08
-3.43071e-08
-3.70944e-06
3.71035e-06
3.19404e-08
-3.2843e-08
-3.71122e-06
3.71205e-06
3.06274e-08
-3.14495e-08
-3.71285e-06
3.71359e-06
2.93732e-08
-3.01223e-08
-3.71432e-06
3.71501e-06
2.81761e-08
-2.88596e-08
-3.71567e-06
3.7163e-06
2.70336e-08
-2.76579e-08
6.72137e-09
-6.79142e-09
3.18507e-06
-3.18781e-06
3.1912e-06
3.21212e-08
-3.55153e-08
-3.19468e-06
3.19815e-06
4.42504e-08
-4.7722e-08
-3.20165e-06
3.20485e-06
4.95292e-08
-5.27318e-08
-3.20782e-06
3.21044e-06
5.01492e-08
-5.27728e-08
-3.21284e-06
3.21495e-06
4.87928e-08
-5.0898e-08
-3.21687e-06
3.21857e-06
4.67093e-08
-4.84062e-08
-3.22013e-06
3.22153e-06
4.45139e-08
-4.59125e-08
-3.22284e-06
3.22402e-06
4.24084e-08
-4.3588e-08
-3.22513e-06
3.22614e-06
4.04376e-08
-4.14494e-08
-3.2271e-06
3.22798e-06
3.85943e-08
-3.94703e-08
-3.22881e-06
3.22957e-06
3.68601e-08
-3.76211e-08
-3.23029e-06
3.23095e-06
3.52177e-08
-3.5878e-08
-3.23158e-06
3.23215e-06
3.36595e-08
-3.42301e-08
-3.23269e-06
3.23318e-06
3.21811e-08
-3.26712e-08
-3.23364e-06
3.23405e-06
3.07775e-08
-3.11954e-08
-3.23445e-06
3.2348e-06
2.94466e-08
-2.9801e-08
-3.23513e-06
3.23543e-06
2.81849e-08
-2.84844e-08
6.43303e-09
-4.71036e-09
2.77128e-06
-2.77614e-06
2.77999e-06
3.93762e-08
-4.32304e-08
-2.78376e-06
2.78759e-06
5.1585e-08
-5.54184e-08
-2.79135e-06
2.79466e-06
5.61977e-08
-5.95101e-08
-2.79762e-06
2.80011e-06
5.55242e-08
-5.80197e-08
-2.80227e-06
2.80405e-06
5.30202e-08
-5.47954e-08
-2.80555e-06
2.80676e-06
5.00356e-08
-5.12467e-08
-2.80776e-06
2.80856e-06
4.71825e-08
-4.79803e-08
-2.80921e-06
2.8097e-06
4.45948e-08
-4.50895e-08
-2.81008e-06
2.81034e-06
4.22556e-08
-4.25187e-08
-2.81051e-06
2.81058e-06
4.01156e-08
-4.01918e-08
-2.81058e-06
2.81049e-06
3.81309e-08
-3.8049e-08
-2.81034e-06
2.81011e-06
3.62699e-08
-3.60494e-08
-2.80982e-06
2.80948e-06
3.45174e-08
-3.41728e-08
-2.80907e-06
2.80861e-06
3.28646e-08
-3.24079e-08
-2.80809e-06
2.80753e-06
3.13045e-08
-3.07468e-08
-2.80691e-06
2.80626e-06
2.98358e-08
-2.91884e-08
-2.80556e-06
2.80484e-06
2.84562e-08
-2.77336e-08
9.68659e-10
8.61339e-10
2.41117e-06
-2.41745e-06
2.42318e-06
4.79331e-08
-5.36614e-08
-2.42858e-06
2.4336e-06
5.99583e-08
-6.49774e-08
-2.43779e-06
2.44085e-06
6.3111e-08
-6.6173e-08
-2.443e-06
2.44419e-06
6.04401e-08
-6.16301e-08
-2.44452e-06
2.44408e-06
5.61563e-08
-5.57112e-08
-2.44292e-06
2.44119e-06
5.17766e-08
-5.0048e-08
-2.4389e-06
2.43622e-06
4.78923e-08
-4.52067e-08
-2.43309e-06
2.4297e-06
4.45391e-08
-4.11476e-08
-2.42595e-06
2.42203e-06
4.1606e-08
-3.76895e-08
-2.41782e-06
2.41351e-06
3.89805e-08
-3.4673e-08
-2.40895e-06
2.40436e-06
3.65823e-08
-3.19885e-08
-2.39956e-06
2.39476e-06
3.43601e-08
-2.95652e-08
-2.38979e-06
2.38487e-06
3.22888e-08
-2.73634e-08
-2.37979e-06
2.3748e-06
3.03544e-08
-2.53572e-08
-2.36968e-06
2.36466e-06
2.85474e-08
-2.35273e-08
-2.35954e-06
2.35453e-06
2.68669e-08
-2.18644e-08
-2.34945e-06
2.3445e-06
2.53164e-08
-2.03696e-08
2.95582e-08
2.07144e-06
-2.14045e-06
2.13881e-06
6.08849e-08
-5.92466e-08
-2.13452e-06
2.12668e-06
7.04096e-08
-6.25673e-08
-2.11529e-06
2.10086e-06
6.67852e-08
-5.23592e-08
-2.08328e-06
2.06392e-06
5.80391e-08
-3.86774e-08
-2.0429e-06
2.02182e-06
4.88487e-08
-2.77671e-08
-2.00035e-06
1.9798e-06
4.10298e-08
-2.04777e-08
-1.95954e-06
1.94057e-06
3.49839e-08
-1.60154e-08
-1.92215e-06
1.90505e-06
3.04053e-08
-1.33053e-08
-1.88851e-06
1.87319e-06
2.68702e-08
-1.15508e-08
-1.85837e-06
1.84462e-06
2.40416e-08
-1.02907e-08
-1.83129e-06
1.81888e-06
2.16947e-08
-9.29053e-09
-1.80683e-06
1.79558e-06
1.96882e-08
-8.43874e-09
-1.78461e-06
1.77436e-06
1.79397e-08
-7.68768e-09
-1.76435e-06
1.75496e-06
1.6398e-08
-7.01615e-09
-1.74578e-06
1.73717e-06
1.50293e-08
-6.41374e-09
-1.72872e-06
1.72079e-06
1.38155e-08
-5.87894e-09
-1.713e-06
1.70567e-06
1.27608e-08
-5.43591e-09
9.12719e-10
-3.7206e-09
2.80622e-09
-3.7327e-09
7.64897e-09
-3.91976e-09
-1.1842e-08
1.57805e-08
-3.94315e-09
-1.91301e-08
2.17478e-08
-2.62401e-09
-2.35661e-08
2.4579e-08
-1.02065e-09
-2.48311e-08
2.43625e-08
4.59953e-10
-2.32709e-08
2.16126e-08
1.64926e-09
-1.94998e-08
1.69651e-08
2.5253e-09
-1.41036e-08
1.09252e-08
3.16853e-09
-7.51345e-09
3.85681e-09
3.64604e-09
-3.42727e-11
-3.99522e-09
4.01818e-09
8.17369e-09
-1.25383e-08
4.35289e-09
1.702e-08
-2.16781e-08
4.64605e-09
2.64464e-08
-3.13718e-08
4.91306e-09
3.64085e-08
-4.16087e-08
5.18765e-09
4.68976e-08
-5.23596e-08
5.4493e-09
5.79187e-08
-6.36247e-08
5.69289e-09
6.94372e-08
-7.53927e-08
5.94206e-09
8.1452e-08
-8.76713e-08
6.20558e-09
9.39508e-08
-1.00402e-07
6.43741e-09
1.06909e-07
-1.13588e-07
6.66483e-09
1.20336e-07
-1.27203e-07
6.85284e-09
1.34157e-07
-1.41222e-07
7.0507e-09
1.48372e-07
-1.55622e-07
7.23595e-09
1.62953e-07
-1.70411e-07
7.44393e-09
1.77878e-07
-1.855e-07
7.60773e-09
1.93121e-07
-2.00895e-07
7.75953e-09
2.08657e-07
-2.16573e-07
7.90267e-09
2.24468e-07
-2.32514e-07
8.03318e-09
2.40531e-07
-2.48701e-07
8.15642e-09
2.56833e-07
-2.65116e-07
8.26957e-09
2.73357e-07
-2.81747e-07
8.37729e-09
2.90086e-07
-2.98577e-07
8.47849e-09
3.07014e-07
-3.15602e-07
8.57584e-09
3.24127e-07
-3.32737e-07
8.59841e-09
3.41413e-07
-3.50106e-07
8.68178e-09
3.58867e-07
-3.67638e-07
8.76035e-09
3.76402e-07
-3.85322e-07
8.90972e-09
3.94164e-07
-4.03159e-07
8.98524e-09
4.12069e-07
-4.21051e-07
8.97196e-09
4.30108e-07
-4.39155e-07
9.03776e-09
4.48188e-07
-4.57384e-07
9.18609e-09
4.66478e-07
-4.7564e-07
9.15226e-09
4.84881e-07
-4.94101e-07
9.20997e-09
5.033e-07
-5.12667e-07
9.357e-09
5.21916e-07
-5.31232e-07
9.30699e-09
5.40628e-07
-5.4999e-07
9.3531e-09
5.59323e-07
-5.68718e-07
9.38649e-09
5.782e-07
-5.87636e-07
9.42767e-09
5.97039e-07
-6.065e-07
9.45292e-09
6.16048e-07
-6.25537e-07
9.47988e-09
6.34987e-07
-6.44489e-07
9.49328e-09
6.5408e-07
-6.63597e-07
9.50844e-09
6.73067e-07
-6.82573e-07
9.49815e-09
6.92035e-07
-7.01538e-07
9.49594e-09
7.11135e-07
-7.20639e-07
9.49628e-09
7.3009e-07
-7.39572e-07
9.47368e-09
7.49003e-07
-7.58469e-07
9.45687e-09
7.67892e-07
-7.77498e-07
9.59827e-09
7.86916e-07
-7.96351e-07
9.43327e-09
8.05736e-07
-8.15124e-07
9.4002e-09
8.24465e-07
-8.33779e-07
9.35154e-09
8.43052e-07
-8.5225e-07
9.27001e-09
8.61419e-07
-8.70467e-07
9.1523e-09
8.79493e-07
-8.88386e-07
9.01175e-09
8.97254e-07
-9.05991e-07
8.84511e-09
9.14683e-07
-9.23312e-07
8.69552e-09
9.31918e-07
-9.40566e-07
8.64532e-09
9.4911e-07
-9.57675e-07
8.47546e-09
9.661e-07
-9.74663e-07
8.40699e-09
9.8297e-07
-9.9131e-07
8.1769e-09
9.99417e-07
-1.00751e-06
8.00128e-09
1.01539e-06
-1.02294e-06
7.60075e-09
1.02987e-06
-1.03668e-06
6.99998e-09
1.04396e-06
-1.05081e-06
7.13865e-09
1.05801e-06
-1.06455e-06
6.88931e-09
1.07108e-06
-1.07794e-06
7.17101e-09
1.08481e-06
-1.0927e-06
7.96008e-09
1.10362e-06
-1.12089e-06
1.69522e-08
1.12843e-06
-1.11653e-06
-1.25338e-08
1.11679e-06
-1.12898e-06
1.17321e-08
1.13855e-06
-1.1492e-06
1.04733e-08
1.15681e-06
-1.1586e-06
1.7612e-09
1.16175e-06
-1.16718e-06
5.50415e-09
1.17083e-06
-1.17256e-06
2.02077e-09
1.17532e-06
-1.18146e-06
6.48449e-09