/*--------------------------------*- C++ -*----------------------------------*\
  =========                 |
  \\      /  F ield         | OpenFOAM: The Open Source CFD Toolbox
   \\    /   O peration     | Website:  https://openfoam.org
    \\  /    A nd           | Version:  7
     \\/     M anipulation  |
\*---------------------------------------------------------------------------*/
FoamFile
{
    version     2.0;
    format      ascii;
    class       volVectorField;
    location    "500";
    object      U;
}
// * * * * * * * * * * * * * * * * * * * * * * * * * * * * * * * * * * * * * //

dimensions      [0 1 -1 0 0 0 0];

internalField   nonuniform List<vector> 
48900
(
(10.1555 0.422383 0)
(8.81651 -0.790495 0)
(7.84617 -0.155325 0)
(7.12554 -0.00358498 0)
(6.67542 0.0204967 0)
(6.39112 0.0216697 0)
(6.18327 0.0194677 0)
(6.01133 0.0167643 0)
(5.86248 0.0141284 0)
(5.73321 0.0118266 0)
(5.62193 0.00993173 0)
(5.52669 0.00841547 0)
(5.44568 0.00714335 0)
(5.37731 0.00603331 0)
(5.32036 0.0049896 0)
(5.27432 0.0038728 0)
(5.24003 0.00246141 0)
(5.22119 0.00235821 0)
(9.99731 0.0258325 0)
(10.133 0.0871146 0)
(10.1789 0.0999145 0)
(10.1355 0.10545 0)
(10.0075 0.095352 0)
(9.83148 0.0845334 0)
(9.63912 0.0756356 0)
(9.44896 0.0681856 0)
(9.26947 0.0616274 0)
(9.10362 0.0557408 0)
(8.95191 0.0504353 0)
(8.81405 0.0456495 0)
(8.6894 0.0412604 0)
(8.5773 0.0371451 0)
(8.4772 0.0331152 0)
(8.38885 0.0288412 0)
(8.31255 0.023575 0)
(8.24979 0.0147122 0)
(10.0006 0.0207673 0)
(10.0609 0.0953221 0)
(10.1157 0.115635 0)
(10.1549 0.115794 0)
(10.1712 0.10896 0)
(10.1703 0.102968 0)
(10.1575 0.0985021 0)
(10.1353 0.0948211 0)
(10.1052 0.0912303 0)
(10.0681 0.0874592 0)
(10.0251 0.0834689 0)
(9.97756 0.0792777 0)
(9.92685 0.0748837 0)
(9.87435 0.0702243 0)
(9.82147 0.0651316 0)
(9.7696 0.0592238 0)
(9.72016 0.051602 0)
(9.67412 0.0399911 0)
(10.0006 0.0184359 0)
(10.0439 0.082824 0)
(10.0871 0.102611 0)
(10.1229 0.107398 0)
(10.1466 0.104299 0)
(10.1618 0.100695 0)
(10.172 0.097805 0)
(10.1792 0.0954005 0)
(10.184 0.0930608 0)
(10.1869 0.0905874 0)
(10.1879 0.0879183 0)
(10.1874 0.0850237 0)
(10.1854 0.0818449 0)
(10.1823 0.0782606 0)
(10.1783 0.0740391 0)
(10.1737 0.0687412 0)
(10.1686 0.0615355 0)
(10.1622 0.0511022 0)
(10.0005 0.0152686 0)
(10.0336 0.0713974 0)
(10.0713 0.092641 0)
(10.1032 0.0994242 0)
(10.1265 0.0985841 0)
(10.1434 0.0963686 0)
(10.1568 0.0942662 0)
(10.1682 0.092353 0)
(10.1782 0.0903922 0)
(10.1872 0.0882485 0)
(10.1953 0.0858717 0)
(10.2027 0.0832279 0)
(10.2095 0.0802515 0)
(10.2159 0.0768141 0)
(10.2221 0.072685 0)
(10.228 0.0674741 0)
(10.2334 0.0605819 0)
(10.2373 0.0514258 0)
(10.0005 0.0128024 0)
(10.0258 0.0613779 0)
(10.0589 0.0829688 0)
(10.088 0.0913638 0)
(10.1105 0.0923986 0)
(10.1278 0.091343 0)
(10.142 0.0898655 0)
(10.1544 0.0882928 0)
(10.1657 0.086552 0)
(10.1762 0.0845687 0)
(10.186 0.0823064 0)
(10.1952 0.0797311 0)
(10.204 0.0767767 0)
(10.2125 0.0733206 0)
(10.2207 0.0691592 0)
(10.2286 0.0639891 0)
(10.2358 0.0574444 0)
(10.2415 0.0493678 0)
(10.0004 0.0107413 0)
(10.0198 0.0525295 0)
(10.0482 0.0737289 0)
(10.0746 0.0832408 0)
(10.0963 0.0858271 0)
(10.1136 0.0858209 0)
(10.1282 0.0849315 0)
(10.1411 0.083673 0)
(10.1529 0.0821158 0)
(10.1639 0.0802489 0)
(10.1742 0.0780565 0)
(10.184 0.0755103 0)
(10.1935 0.0725502 0)
(10.2025 0.0690694 0)
(10.2112 0.0649055 0)
(10.2194 0.0598495 0)
(10.2268 0.0537171 0)
(10.2328 0.0465585 0)
(10.0004 0.00902156 0)
(10.0153 0.0448448 0)
(10.0392 0.0650571 0)
(10.0628 0.0751646 0)
(10.0833 0.0789405 0)
(10.1003 0.0798535 0)
(10.115 0.0795276 0)
(10.1281 0.0785864 0)
(10.1402 0.0772132 0)
(10.1514 0.0754576 0)
(10.162 0.0733295 0)
(10.172 0.0708128 0)
(10.1816 0.06786 0)
(10.1908 0.0643876 0)
(10.1995 0.0602796 0)
(10.2077 0.055412 0)
(10.2149 0.0497236 0)
(10.221 0.0433486 0)
(10.0003 0.00758083 0)
(10.0119 0.0382048 0)
(10.0319 0.057042 0)
(10.0526 0.0673014 0)
(10.0715 0.0718869 0)
(10.0879 0.073535 0)
(10.1024 0.0737108 0)
(10.1155 0.0730764 0)
(10.1276 0.0718896 0)
(10.1389 0.0702501 0)
(10.1496 0.0681941 0)
(10.1597 0.065722 0)
(10.1693 0.0628037 0)
(10.1784 0.059383 0)
(10.187 0.0553893 0)
(10.1949 0.0507664 0)
(10.202 0.0455277 0)
(10.208 0.0398286 0)
(10.0003 0.00636664 0)
(10.0093 0.0324696 0)
(10.026 0.0496913 0)
(10.0441 0.0597575 0)
(10.0612 0.064818 0)
(10.0768 0.066998 0)
(10.0908 0.067578 0)
(10.1036 0.0672118 0)
(10.1155 0.0661984 0)
(10.1267 0.0646737 0)
(10.1373 0.0626975 0)
(10.1473 0.0602875 0)
(10.1568 0.0574333 0)
(10.1657 0.0541062 0)
(10.1741 0.0502752 0)
(10.1818 0.0459331 0)
(10.1887 0.0411335 0)
(10.1946 0.0360242 0)
(10.0002 0.00534173 0)
(10.0074 0.0275018 0)
(10.0213 0.0429735 0)
(10.037 0.0525763 0)
(10.0525 0.0578315 0)
(10.0669 0.0603547 0)
(10.0803 0.0612326 0)
(10.0926 0.0610801 0)
(10.1042 0.0602139 0)
(10.1151 0.0587939 0)
(10.1254 0.0568993 0)
(10.1352 0.054565 0)
(10.1445 0.0517996 0)
(10.1532 0.0485999 0)
(10.1613 0.044966 0)
(10.1687 0.0409228 0)
(10.1754 0.0365415 0)
(10.1811 0.0319517 0)
(10.0002 0.00454312 0)
(10.006 0.0233496 0)
(10.0176 0.0370891 0)
(10.0314 0.0460461 0)
(10.0454 0.0512621 0)
(10.0588 0.0539523 0)
(10.0714 0.0550183 0)
(10.0832 0.0550173 0)
(10.0944 0.0542645 0)
(10.1049 0.0529327 0)
(10.1149 0.0511159 0)
(10.1244 0.0488637 0)
(10.1333 0.046202 0)
(10.1417 0.0431472 0)
(10.1495 0.0397219 0)
(10.1566 0.0359687 0)
(10.163 0.0319632 0)
(10.1686 0.027815 0)
(10.0001 0.00380602 0)
(10.005 0.0199643 0)
(10.0149 0.0321154 0)
(10.0271 0.0403542 0)
(10.0398 0.045375 0)
(10.0523 0.0480953 0)
(10.0642 0.0492555 0)
(10.0755 0.0493497 0)
(10.0862 0.0486786 0)
(10.0964 0.047419 0)
(10.106 0.0456742 0)
(10.1152 0.0435054 0)
(10.1238 0.0409514 0)
(10.1318 0.0380436 0)
(10.1393 0.0348181 0)
(10.1461 0.0313266 0)
(10.1523 0.0276424 0)
(10.1578 0.0238581 0)
(10.0001 0.00307339 0)
(10.0041 0.0165263 0)
(10.0125 0.0268924 0)
(10.023 0.0341853 0)
(10.0344 0.0388164 0)
(10.0459 0.0414323 0)
(10.057 0.042607 0)
(10.0677 0.0427554 0)
(10.0779 0.04215 0)
(10.0877 0.0409629 0)
(10.0969 0.0393022 0)
(10.1056 0.0372381 0)
(10.1138 0.0348209 0)
(10.1215 0.0320935 0)
(10.1286 0.0291017 0)
(10.1352 0.0259008 0)
(10.1411 0.0225583 0)
(10.1464 0.0191501 0)
(10.0001 0.00234775 0)
(10.0033 0.0130689 0)
(10.0103 0.0214817 0)
(10.0194 0.0275937 0)
(10.0294 0.0316095 0)
(10.0398 0.0339476 0)
(10.0501 0.0350217 0)
(10.0601 0.0351578 0)
(10.0698 0.0345866 0)
(10.079 0.033465 0)
(10.0878 0.0318989 0)
(10.096 0.0299629 0)
(10.1038 0.0277139 0)
(10.1111 0.0252019 0)
(10.1179 0.0224768 0)
(10.1241 0.0195928 0)
(10.1297 0.0166087 0)
(10.1349 0.013585 0)
(10.0001 0.00162916 0)
(10.0027 0.00961587 0)
(10.0085 0.0159295 0)
(10.0162 0.0206274 0)
(10.025 0.0237824 0)
(10.0344 0.0256363 0)
(10.0438 0.0264605 0)
(10.0531 0.0264884 0)
(10.0621 0.0258989 0)
(10.0708 0.0248226 0)
(10.079 0.0233543 0)
(10.0869 0.0215652 0)
(10.0942 0.0195127 0)
(10.1011 0.0172474 0)
(10.1075 0.0148176 0)
(10.1134 0.012272 0)
(10.1188 0.00965899 0)
(10.1237 0.00702512 0)
(10.0001 0.000907225 0)
(10.0022 0.00615176 0)
(10.0071 0.0102306 0)
(10.0137 0.0132896 0)
(10.0214 0.0153322 0)
(10.0298 0.0164758 0)
(10.0384 0.0168741 0)
(10.0469 0.0166721 0)
(10.0553 0.0159902 0)
(10.0635 0.0149225 0)
(10.0712 0.0135425 0)
(10.0786 0.0119092 0)
(10.0855 0.0100722 0)
(10.0921 0.00807578 0)
(10.0981 0.00596124 0)
(10.1037 0.00376806 0)
(10.1089 0.00153362 0)
(10.1137 -0.000707961 0)
(10.0001 0.00015148 0)
(10.0019 0.00259206 0)
(10.0061 0.0042747 0)
(10.0119 0.00546645 0)
(10.0189 0.00614647 0)
(10.0264 0.00635019 0)
(10.0343 0.0061375 0)
(10.0423 0.00557162 0)
(10.0501 0.00470997 0)
(10.0578 0.00360191 0)
(10.0651 0.00228966 0)
(10.072 0.000810265 0)
(10.0786 -0.000802724 0)
(10.0848 -0.00251817 0)
(10.0905 -0.00430656 0)
(10.0959 -0.0061401 0)
(10.1009 -0.007993 0)
(10.1055 -0.00984225 0)
(10.0001 -0.000711797 0)
(10.0018 -0.00128657 0)
(10.0057 -0.00226979 0)
(10.0112 -0.00321911 0)
(10.0178 -0.00415623 0)
(10.025 -0.00510697 0)
(10.0325 -0.00609541 0)
(10.04 -0.00714043 0)
(10.0475 -0.008254 0)
(10.0548 -0.00944105 0)
(10.0618 -0.0107003 0)
(10.0684 -0.0120255 0)
(10.0747 -0.0134063 0)
(10.0806 -0.0148301 0)
(10.0861 -0.0162829 0)
(10.0913 -0.0177499 0)
(10.0961 -0.0192172 0)
(10.1006 -0.0206715 0)
(10.0001 -0.00149677 0)
(10.002 -0.00548041 0)
(10.0062 -0.00932415 0)
(10.0121 -0.0125374 0)
(10.0189 -0.0151506 0)
(10.0264 -0.0172677 0)
(10.034 -0.0190141 0)
(10.0417 -0.0205053 0)
(10.0491 -0.0218332 0)
(10.0563 -0.0230638 0)
(10.0632 -0.0242416 0)
(10.0697 -0.0253933 0)
(10.0758 -0.0265335 0)
(10.0816 -0.027668 0)
(10.087 -0.0287974 0)
(10.0921 -0.0299189 0)
(10.0968 -0.031028 0)
(10.1012 -0.0321197 0)
(10.0001 -0.00227706 0)
(10.0024 -0.00913731 0)
(10.0074 -0.0153677 0)
(10.0141 -0.0203464 0)
(10.0218 -0.024161 0)
(10.0299 -0.0270307 0)
(10.038 -0.0292031 0)
(10.046 -0.030894 0)
(10.0537 -0.0322684 0)
(10.061 -0.0334427 0)
(10.0679 -0.0344942 0)
(10.0745 -0.0354718 0)
(10.0806 -0.0364048 0)
(10.0864 -0.0373097 0)
(10.0918 -0.0381948 0)
(10.0968 -0.0390634 0)
(10.1015 -0.0399156 0)
(10.1059 -0.0407503 0)
(10.0001 -0.00314545 0)
(10.003 -0.0130484 0)
(10.0092 -0.0216647 0)
(10.0173 -0.0282302 0)
(10.0262 -0.0329778 0)
(10.0353 -0.0363172 0)
(10.0442 -0.0386661 0)
(10.0527 -0.0403599 0)
(10.0607 -0.0416389 0)
(10.0683 -0.0426627 0)
(10.0753 -0.0435321 0)
(10.082 -0.0443089 0)
(10.0882 -0.0450299 0)
(10.094 -0.0457161 0)
(10.0994 -0.0463791 0)
(10.1045 -0.0470249 0)
(10.1092 -0.0476557 0)
(10.1136 -0.0482718 0)
(10.0002 -0.00414966 0)
(10.004 -0.0174479 0)
(10.012 -0.0284896 0)
(10.022 -0.0364335 0)
(10.0325 -0.0418012 0)
(10.0428 -0.0452957 0)
(10.0525 -0.0475601 0)
(10.0616 -0.0490639 0)
(10.07 -0.0501169 0)
(10.0778 -0.0509086 0)
(10.085 -0.0515503 0)
(10.0918 -0.0521056 0)
(10.098 -0.0526106 0)
(10.1039 -0.0530856 0)
(10.1093 -0.0535418 0)
(10.1144 -0.0539852 0)
(10.1191 -0.0544183 0)
(10.1235 -0.0548418 0)
(10.0002 -0.00532169 0)
(10.0054 -0.0225514 0)
(10.016 -0.0360144 0)
(10.0283 -0.0450638 0)
(10.0407 -0.0506797 0)
(10.0523 -0.053991 0)
(10.0629 -0.0559124 0)
(10.0725 -0.0570499 0)
(10.0812 -0.0577669 0)
(10.0892 -0.0582631 0)
(10.0966 -0.0586437 0)
(10.1033 -0.0589629 0)
(10.1096 -0.0592487 0)
(10.1154 -0.0595165 0)
(10.1208 -0.0597746 0)
(10.1259 -0.0600277 0)
(10.1305 -0.0602777 0)
(10.1349 -0.0605245 0)
(10.0002 -0.00663507 0)
(10.0073 -0.0285855 0)
(10.0212 -0.0443108 0)
(10.0363 -0.0541202 0)
(10.0508 -0.0595468 0)
(10.0638 -0.0623223 0)
(10.0751 -0.0636515 0)
(10.085 -0.0642682 0)
(10.0939 -0.0645622 0)
(10.1019 -0.0647185 0)
(10.1091 -0.0648179 0)
(10.1158 -0.0648935 0)
(10.1219 -0.0649595 0)
(10.1276 -0.0650229 0)
(10.1328 -0.0650881 0)
(10.1376 -0.0651582 0)
(10.1421 -0.0652343 0)
(10.1462 -0.0653151 0)
(10.0001 -0.00789122 0)
(10.0099 -0.0357954 0)
(10.028 -0.0533395 0)
(10.0461 -0.0634818 0)
(10.0626 -0.0682213 0)
(10.0766 -0.0701118 0)
(10.0884 -0.070632 0)
(10.0984 -0.0706158 0)
(10.1071 -0.0704366 0)
(10.1149 -0.0702334 0)
(10.1218 -0.0700442 0)
(10.1282 -0.0698728 0)
(10.1339 -0.0697161 0)
(10.1391 -0.069572 0)
(10.1439 -0.0694414 0)
(10.1482 -0.0693268 0)
(10.1521 -0.0692301 0)
(10.1557 -0.0691484 0)
(9.99958 -0.00886894 0)
(10.0131 -0.0442345 0)
(10.0359 -0.06294 0)
(10.0574 -0.0729481 0)
(10.076 -0.0765062 0)
(10.0909 -0.077218 0)
(10.1029 -0.0767631 0)
(10.1126 -0.0760263 0)
(10.1207 -0.0753227 0)
(10.1276 -0.0747219 0)
(10.1336 -0.07421 0)
(10.1388 -0.0737583 0)
(10.1433 -0.0733461 0)
(10.1472 -0.0729629 0)
(10.1505 -0.0726062 0)
(10.1534 -0.0722788 0)
(10.1558 -0.0719855 0)
(10.1579 -0.0717246 0)
(9.99619 -0.00214447 0)
(10.017 -0.0554269 0)
(10.0459 -0.073183 0)
(10.0723 -0.0823392 0)
(10.0936 -0.0843059 0)
(10.109 -0.0834995 0)
(10.1198 -0.0818006 0)
(10.127 -0.0801269 0)
(10.1316 -0.0787185 0)
(10.1343 -0.0775608 0)
(10.1355 -0.0765795 0)
(10.1354 -0.0757091 0)
(10.1343 -0.0749079 0)
(10.1322 -0.0741546 0)
(10.1293 -0.0734412 0)
(10.1256 -0.0727698 0)
(10.1212 -0.0721499 0)
(10.1162 -0.0715911 0)
(9.99374 -0.0631245 0)
(10.0233 -0.051792 0)
(10.0719 -0.0850627 0)
(10.1058 -0.0942357 0)
(10.1235 -0.0929016 0)
(10.1263 -0.0888871 0)
(10.1169 -0.0844831 0)
(10.0981 -0.0806116 0)
(10.0724 -0.07738 0)
(10.0417 -0.0746558 0)
(10.0072 -0.0722793 0)
(9.96981 -0.0701308 0)
(9.93043 -0.0681344 0)
(9.88967 -0.0662499 0)
(9.84808 -0.0644585 0)
(9.8061 -0.0627571 0)
(9.76411 -0.0611581 0)
(9.72238 -0.0596934 0)
(9.85145 1.36809 0)
(10.1935 -0.419338 0)
(10.1386 -0.237357 0)
(10.0328 -0.146652 0)
(9.8674 -0.100444 0)
(9.66942 -0.0731186 0)
(9.46734 -0.0556144 0)
(9.27653 -0.0443766 0)
(9.103 -0.0372734 0)
(8.94728 -0.0327798 0)
(8.80773 -0.0298558 0)
(8.68218 -0.0278361 0)
(8.56862 -0.026318 0)
(8.46537 -0.0250764 0)
(8.37108 -0.0239928 0)
(8.28463 -0.0230117 0)
(8.20512 -0.0221209 0)
(8.13177 -0.0213758 0)
(0.00191673 -0.00850291 0)
(0.00989331 -0.00794642 0)
(0.0246557 -0.0100677 8.38264e-20)
(0.0365503 -0.00742636 0)
(0.0430348 -0.0035507 0)
(0.0439624 0.00015764 0)
(0.0400778 0.00307336 0)
(0.0325637 0.00515381 0)
(0.0223689 0.00664437 -6.2997e-20)
(0.0102053 0.00776149 0)
(-0.00345154 0.00856772 0)
(-0.0183773 0.00908728 0)
(-0.0344131 0.00949899 0)
(-0.0514735 0.00987539 0)
(-0.0695052 0.0102426 0)
(-0.0884871 0.0106062 0)
(-0.10842 0.0109671 7.10001e-20)
(-0.129272 0.0113176 0)
(-0.151032 0.011656 -3.02536e-20)
(-0.173662 0.0119747 2.80665e-20)
(-0.197134 0.0122719 0)
(-0.221423 0.0125494 0)
(-0.246465 0.012796 0)
(-0.272228 0.0130162 0)
(-0.298669 0.0132119 0)
(-0.325734 0.013378 0)
(-0.353392 0.0135174 -1.79143e-20)
(-0.381597 0.013633 0)
(-0.410316 0.0137247 1.60944e-20)
(-0.439512 0.0137957 0)
(-0.469159 0.0138546 -1.45708e-20)
(-0.499232 0.0139 0)
(-0.529701 0.013933 0)
(-0.560558 0.0139537 1.27133e-20)
(-0.591764 0.0139602 0)
(-0.623327 0.0139649 0)
(-0.655228 0.0139595 2.24905e-20)
(-0.687415 0.0139373 0)
(-0.719932 0.0139239 0)
(-0.752724 0.0138982 2.01256e-20)
(-0.785825 0.0138742 0)
(-0.819157 0.0138338 9.39649e-21)
(-0.852746 0.0138027 0)
(-0.886616 0.0137739 -1.76232e-20)
(-0.920684 0.0137266 0)
(-0.954972 0.0136903 0)
(-0.989515 0.0136511 0)
(-1.02419 0.0135813 0)
(-1.05911 0.01353 0)
(-1.09413 0.0134395 1.48597e-20)
(-1.12936 0.0133665 0)
(-1.16464 0.013254 0)
(-1.2001 0.0131653 0)
(-1.23557 0.0130351 0)
(-1.27105 0.0129254 0)
(-1.30663 0.0128586 0)
(-1.34218 0.0127598 1.26108e-20)
(-1.37771 0.0126853 0)
(-1.41326 0.0126415 -6.0531e-21)
(-1.44884 0.0126052 -1.18726e-20)
(-1.48433 0.0125149 0)
(-1.51969 0.0123765 1.14428e-20)
(-1.55481 0.0121286 0)
(-1.58954 0.0117365 -1.10497e-20)
(-1.62373 0.0112941 0)
(-1.65744 0.0110168 1.06817e-20)
(-1.69065 0.0113864 1.05175e-20)
(-1.72355 0.0117457 -1.03784e-20)
(-1.75639 0.0105739 0)
(-1.78909 0.00997965 0)
(-1.82138 0.00839704 1.0122e-20)
(-1.85268 0.0055882 0)
(-1.88336 0.00239525 0)
(-1.91128 0.00573031 -1.95275e-20)
(-1.9383 0.0108292 0)
(-1.96592 0.0146691 0)
(-1.99166 0.0240349 0)
(-2.01992 0.0388407 9.32821e-21)
(-2.06348 0.0771768 0)
(-2.08618 -0.138093 -2.29843e-20)
(-2.08897 0.0208945 8.90849e-21)
(-2.12819 0.043628 0)
(-2.1589 -0.00634523 -9.09508e-21)
(-2.16987 0.00581561 -1.82183e-20)
(-2.1875 -0.00504103 -8.84675e-21)
(-2.2006 0.0544355 0)
(-2.23715 0.101229 0)
(-2.27055 0.0580422 0)
(-2.2584 -0.0278439 0)
(-2.2818 -0.00732926 0)
(-2.30081 -0.0179195 -2.00228e-20)
(-2.3099 0.0241256 0)
(-2.32739 -0.0204723 0)
(-2.35577 0.076449 -8.90568e-21)
(-2.35957 -0.00113664 0)
(-2.36496 0.00236492 0)
(-2.37197 0.0021497 1.72988e-20)
(-2.37903 0.00191656 0)
(-2.38498 0.00152114 0)
(-2.38963 0.00104137 0)
(-2.3927 0.000564011 0)
(-2.3944 0.00015485 0)
(-2.39469 -0.000182019 0)
(-2.39383 -0.000519926 0)
(-2.39185 -0.000862175 1.28252e-20)
(-2.38849 -0.00117722 0)
(-2.38404 -0.00151859 0)
(-2.37822 -0.00183075 0)
(-2.37126 -0.00216962 1.02279e-20)
(-2.36291 -0.0024814 -9.53338e-21)
(-2.35328 -0.00279945 0)
(-2.34235 -0.00313146 8.08862e-21)
(-2.33007 -0.00344797 0)
(-2.3164 -0.00376499 0)
(-2.30131 -0.00408718 5.77878e-21)
(-2.28482 -0.00442716 0)
(-2.26687 -0.00475944 0)
(-2.24743 -0.00510016 0)
(-2.22652 -0.00544884 0)
(-2.20407 -0.00580727 0)
(-2.18008 -0.00617918 0)
(-2.1545 -0.00655668 0)
(-2.12727 -0.00692996 1.33728e-21)
(-2.09834 -0.00732409 0)
(-2.06764 -0.00773028 -3.40226e-21)
(-2.03505 -0.00812374 0)
(-2.00065 -0.00854627 0)
(-1.96425 -0.00897491 6.78555e-21)
(-1.92576 -0.00940443 0)
(-1.88518 -0.00985817 0)
(-1.84241 -0.0103197 0)
(-1.7973 -0.0108181 -2.37302e-20)
(-1.74998 -0.0114291 0)
(-1.70017 -0.0121722 0)
(-1.64781 -0.013253 0)
(-1.59303 -0.0150833 3.5191e-20)
(-1.53594 -0.0186927 0)
(-1.47689 -0.0260694 -2.07356e-20)
(-1.41667 -0.0422468 2.22554e-20)
(-1.35163 -0.090185 0)
(-1.23185 -0.103538 0)
(-1.16525 -0.0266283 -2.80484e-20)
(-1.11619 -0.0141893 0)
(-1.02515 -0.0609952 0)
(-0.936612 -0.0276308 0)
(-0.859695 -0.0217518 -3.41751e-20)
(-0.781144 -0.0252353 0)
(-0.68367 -0.0317886 0)
(-0.594643 -0.0290407 0)
(-0.503601 -0.0388968 0)
(-0.404682 -0.0396713 0)
(-0.303781 -0.0406573 4.45895e-20)
(-0.199843 -0.037443 0)
(-0.0995293 -0.0331982 4.36791e-20)
(0.00352108 -0.0333949 0)
(0.10895 -0.0339328 4.88926e-20)
(0.215505 -0.0349375 0)
(0.322493 -0.0356837 0)
(0.428777 -0.0377042 0)
(0.535628 -0.0463818 0)
(0.64358 -0.0452739 0)
(0.753237 -0.0472575 0)
(0.856397 -0.0297038 0)
(0.955214 -0.034735 0)
(1.05345 -0.0346632 -1.63031e-19)
(1.14146 -0.0393465 0)
(1.24603 -0.0762372 0)
(1.3154 -0.0145257 1.94699e-19)
(1.39984 -0.120942 0)
(1.4739 -0.102465 0)
(1.52861 -0.0523951 3.59892e-19)
(1.6023 0.0784384 0)
(1.69394 0.0401153 -2.17304e-19)
(1.77033 -0.0472547 0)
(1.83087 0.00538257 0)
(1.88424 -0.0293476 0)
(1.94079 -0.0150957 0)
(1.9822 0.0242862 0)
(2.00388 0.00516892 0)
(1.9668 -0.0249611 0)
(0.00186947 -0.0294202 -3.11328e-19)
(0.0118597 -0.0314184 -2.92774e-20)
(0.0145041 -0.0222142 1.59639e-20)
(0.0128143 -0.0103689 0)
(0.00791827 0.00140032 0)
(0.000316697 0.0119539 9.67886e-21)
(-0.00979248 0.0208463 -1.80865e-20)
(-0.0222766 0.0280173 0)
(-0.0369549 0.033649 2.4619e-20)
(-0.0535925 0.0380359 -1.36223e-23)
(-0.0719428 0.0414905 0)
(-0.0917615 0.0442871 1.46467e-20)
(-0.112828 0.0466292 0)
(-0.134977 0.0486657 0)
(-0.158069 0.0504906 0)
(-0.181988 0.0521559 0)
(-0.206649 0.0536879 -2.47503e-20)
(-0.23198 0.0550976 0)
(-0.257915 0.0563859 0)
(-0.284405 0.0575551 -2.25459e-20)
(-0.311399 0.0586036 0)
(-0.338855 0.0595355 -2.12556e-20)
(-0.366733 0.060354 -1.03487e-20)
(-0.394996 0.0610624 -2.00944e-20)
(-0.423611 0.0616664 1.95537e-20)
(-0.452549 0.0621745 9.50427e-21)
(-0.48179 0.0625974 2.7849e-20)
(-0.511309 0.0629439 0)
(-0.541084 0.06322 8.84318e-21)
(-0.571102 0.0634365 -8.6335e-21)
(-0.60135 0.0636008 -1.68664e-20)
(-0.631815 0.0637202 8.24142e-21)
(-0.662485 0.0638011 -8.0593e-21)
(-0.693362 0.0638499 0)
(-0.724432 0.0638711 -7.71821e-21)
(-0.755692 0.0638642 0)
(-0.787137 0.0638353 0)
(-0.818763 0.0637863 7.25651e-21)
(-0.850567 0.063714 0)
(-0.882543 0.0636246 6.97796e-21)
(-0.914688 0.0635123 0)
(-0.946999 0.0633841 0)
(-0.979464 0.0632367 -6.56436e-21)
(-1.01209 0.0630706 0)
(-1.04485 0.0628852 0)
(-1.07775 0.0626832 1.87218e-20)
(-1.11078 0.0624576 0)
(-1.14392 0.0622145 0)
(-1.17718 0.0619417 5.93813e-21)
(-1.21053 0.0616464 -1.16504e-20)
(-1.24396 0.0613127 3.03954e-23)
(-1.27745 0.0609471 0)
(-1.31101 0.0605384 -2.22061e-20)
(-1.3446 0.0600997 -1.0963e-20)
(-1.37821 0.0596303 0)
(-1.41182 0.0591299 -1.06374e-20)
(-1.44541 0.0586205 1.04813e-20)
(-1.47896 0.0580988 0)
(-1.51245 0.057549 1.01801e-20)
(-1.54585 0.0569626 -3.0047e-20)
(-1.57911 0.0563158 1.97255e-20)
(-1.6122 0.0555813 0)
(-1.64509 0.0547485 1.91967e-20)
(-1.67775 0.0538301 -2.83831e-20)
(-1.7102 0.0528649 -9.35555e-21)
(-1.74244 0.0519078 1.8419e-20)
(-1.77446 0.0510362 9.14075e-21)
(-1.8062 0.0502886 1.80846e-20)
(-1.8377 0.0494763 -1.79947e-20)
(-1.86891 0.0486148 0)
(-1.89959 0.0474144 8.93178e-21)
(-1.92974 0.0459442 1.77735e-20)
(-1.95926 0.043847 0)
(-1.98855 0.0418807 0)
(-2.01689 0.041269 0)
(-2.04426 0.0400211 1.66865e-20)
(-2.07111 0.0394108 0)
(-2.09593 0.0395746 -1.70605e-20)
(-2.1151 0.0397696 -8.89764e-21)
(-2.14207 0.0292195 0)
(-2.17132 0.034192 0)
(-2.18872 0.0346926 0)
(-2.20854 0.028348 -8.1103e-21)
(-2.23124 0.0281063 2.36278e-20)
(-2.25183 0.0245497 0)
(-2.27147 0.0260695 -1.51501e-20)
(-2.28253 0.0253592 0)
(-2.2952 0.0190979 0)
(-2.31796 0.0179853 3.19892e-20)
(-2.32969 0.0204707 0)
(-2.34101 0.0177381 -1.46047e-20)
(-2.35435 0.0166728 1.36483e-20)
(-2.36234 0.014868 0)
(-2.36668 0.014051 0)
(-2.37552 0.00845475 0)
(-2.38291 0.00808777 0)
(-2.38782 0.0069021 -1.20944e-20)
(-2.39136 0.00555355 0)
(-2.39369 0.00407374 2.25828e-20)
(-2.39486 0.00256934 0)
(-2.39488 0.00110212 0)
(-2.39371 -0.000338037 1.0035e-20)
(-2.39131 -0.00174894 0)
(-2.38766 -0.00314646 0)
(-2.38273 -0.00452981 0)
(-2.37653 -0.00589332 -2.47412e-20)
(-2.36903 -0.0072543 0)
(-2.36022 -0.00859684 7.29398e-21)
(-2.35008 -0.00993896 1.36701e-20)
(-2.3386 -0.0112664 6.3205e-21)
(-2.32574 -0.0125873 -5.82213e-21)
(-2.3115 -0.013914 5.37612e-21)
(-2.29583 -0.0152271 4.80362e-21)
(-2.2787 -0.0165422 4.28407e-21)
(-2.26009 -0.0178611 -7.59101e-21)
(-2.23998 -0.0191983 0)
(-2.21833 -0.020537 0)
(-2.19509 -0.0218907 0)
(-2.17026 -0.0232611 3.30078e-21)
(-2.14376 -0.0246503 0)
(-2.11559 -0.0260602 0)
(-2.08567 -0.0274919 6.52313e-23)
(-2.05399 -0.0289304 1.1624e-21)
(-2.02045 -0.0303955 0)
(-1.98501 -0.0318816 0)
(-1.94763 -0.0333737 0)
(-1.9082 -0.0348858 0)
(-1.86671 -0.0364138 -7.16393e-21)
(-1.82308 -0.0379445 0)
(-1.77727 -0.0394929 0)
(-1.72923 -0.0410397 0)
(-1.67889 -0.0425955 0)
(-1.62624 -0.044159 0)
(-1.57119 -0.0457244 0)
(-1.51365 -0.0473103 -7.72145e-21)
(-1.45353 -0.0489 -1.63772e-22)
(-1.3906 -0.0505208 0)
(-1.32442 -0.0522608 0)
(-1.25418 -0.0546066 3.11975e-22)
(-1.18112 -0.0594195 1.90333e-20)
(-1.12155 -0.0603694 -1.73203e-20)
(-1.04618 -0.0533062 -1.92943e-20)
(-0.96107 -0.056974 -2.0612e-20)
(-0.88371 -0.0649212 0)
(-0.801436 -0.0618176 2.33873e-20)
(-0.712227 -0.063158 0)
(-0.62014 -0.0661484 -2.59581e-20)
(-0.529492 -0.0680654 0)
(-0.433064 -0.0683739 5.74799e-20)
(-0.334554 -0.0705043 -3.01557e-20)
(-0.235403 -0.0713064 0)
(-0.133917 -0.0721248 0)
(-0.0310158 -0.0724277 3.4379e-20)
(0.0754018 -0.0731508 3.61886e-20)
(0.183618 -0.0742992 3.75129e-20)
(0.293273 -0.0748625 3.88691e-20)
(0.404091 -0.0749289 8.01472e-20)
(0.515465 -0.0744773 0)
(0.627395 -0.0738502 0)
(0.738852 -0.0741827 8.92744e-20)
(0.850393 -0.072993 0)
(0.959237 -0.0722367 4.74617e-20)
(1.06723 -0.0686449 1.00127e-19)
(1.17297 -0.0667342 0)
(1.27489 -0.064304 0)
(1.37615 -0.0613599 5.42137e-20)
(1.46817 -0.062434 5.72032e-20)
(1.56722 -0.0523317 0)
(1.65742 -0.0600241 -1.2437e-19)
(1.746 -0.0517747 0)
(1.83253 -0.0489396 1.73729e-19)
(1.90761 -0.0462755 0)
(1.97126 -0.0430943 -7.19996e-20)
(2.03284 -0.0424263 1.2586e-19)
(2.09611 -0.0360638 0)
(2.15329 -0.033405 0)
(2.19967 -0.0275503 -1.49666e-19)
(2.23785 -0.0190854 0)
(2.26135 -0.00523714 0)
(2.27273 0.0262739 -1.57326e-19)
(-4.73513e-05 -0.0347841 2.82924e-19)
(-0.000395038 -0.0326061 1.62632e-19)
(-0.00605725 -0.0143913 4.14947e-20)
(-0.0141959 0.00327627 -1.17915e-23)
(-0.02412 0.0195321 2.49134e-20)
(-0.0355854 0.0340422 -2.20613e-20)
(-0.0485191 0.0466472 4.05964e-20)
(-0.0629192 0.0573428 -1.90943e-20)
(-0.0787772 0.0662536 0)
(-0.0960565 0.0735995 -1.748e-20)
(-0.114677 0.0796407 0)
(-0.134525 0.0846362 0)
(-0.155479 0.0888208 -1.58214e-20)
(-0.177404 0.0923808 0)
(-0.200179 0.0954579 -2.98431e-20)
(-0.223689 0.0981466 0)
(-0.247845 0.100518 -1.41185e-20)
(-0.272561 0.102612 1.37438e-20)
(-0.297774 0.104459 0)
(-0.323427 0.106079 -1.20811e-23)
(-0.349475 0.10749 0)
(-0.375879 0.108703 1.24025e-20)
(-0.402601 0.109732 0)
(-0.42962 0.110593 -3.54897e-20)
(-0.456903 0.111298 1.15682e-20)
(-0.484437 0.111867 -1.12889e-20)
(-0.512205 0.112311 0)
(-0.540189 0.112645 -1.08232e-20)
(-0.568381 0.112885 1.06007e-20)
(-0.596768 0.113044 1.24897e-23)
(-0.625345 0.113133 1.01983e-20)
(-0.654103 0.113161 -1.00045e-20)
(-0.683033 0.113139 -1.96357e-20)
(-0.712139 0.113072 0)
(-0.741411 0.11297 -9.46838e-21)
(-0.770847 0.112832 1.85812e-20)
(-0.800446 0.112666 1.82637e-20)
(-0.830201 0.112472 1.79828e-20)
(-0.860118 0.112251 1.76609e-20)
(-0.890184 0.112004 1.73744e-20)
(-0.920403 0.11173 1.70982e-20)
(-0.950767 0.111429 1.683e-20)
(-0.981271 0.1111 0)
(-1.01191 0.110739 1.63165e-20)
(-1.04268 0.11035 0)
(-1.07357 0.109926 2.60275e-23)
(-1.10457 0.109469 0)
(-1.13567 0.108976 0)
(-1.16686 0.108442 0)
(-1.19813 0.107861 0)
(-1.22946 0.107231 0)
(-1.26085 0.106548 0)
(-1.29229 0.105809 1.4334e-20)
(-1.32374 0.105014 -1.41451e-20)
(-1.35521 0.104165 1.39637e-20)
(-1.38668 0.103267 2.7595e-20)
(-1.41811 0.102328 0)
(-1.44948 0.101343 -1.34696e-20)
(-1.48077 0.100304 -1.3306e-20)
(-1.51195 0.0991971 0)
(-1.54299 0.0980013 0)
(-1.57388 0.0966948 0)
(-1.60457 0.0952675 2.53323e-20)
(-1.63507 0.093724 -1.25274e-20)
(-1.66534 0.0921052 -1.23788e-20)
(-1.69534 0.0904625 -1.22232e-20)
(-1.725 0.0888373 -1.21246e-20)
(-1.75423 0.0871994 0)
(-1.78301 0.0854863 -1.19674e-20)
(-1.8113 0.0836644 -1.1924e-20)
(-1.83907 0.0815952 -1.18523e-20)
(-1.86637 0.0791721 -1.17966e-20)
(-1.89329 0.0764862 0)
(-1.91978 0.0739604 0)
(-1.94534 0.0717507 0)
(-1.96983 0.069571 3.32617e-20)
(-1.9932 0.0675167 2.19866e-20)
(-2.01524 0.0653753 0)
(-2.03618 0.0622263 0)
(-2.0581 0.0577055 0)
(-2.07973 0.0556706 0)
(-2.09866 0.0535647 0)
(-2.11713 0.0499969 1.01744e-20)
(-2.1355 0.0471734 -1.97305e-20)
(-2.15272 0.044564 9.60157e-21)
(-2.16826 0.0429058 -9.29468e-21)
(-2.18127 0.0403916 0)
(-2.19441 0.0361966 0)
(-2.20806 0.0329312 0)
(-2.21951 0.0306031 1.76765e-20)
(-2.2299 0.0276817 0)
(-2.23921 0.0251387 1.64868e-20)
(-2.24658 0.0225785 0)
(-2.25258 0.0192219 1.42881e-23)
(-2.25871 0.0154745 0)
(-2.26386 0.012752 1.46505e-20)
(-2.2675 0.0101602 -1.41896e-20)
(-2.26983 0.00757433 1.37194e-20)
(-2.27095 0.00495487 0)
(-2.27088 0.00234472 -2.54834e-20)
(-2.26961 -0.000232148 1.22453e-20)
(-2.26713 -0.00278021 1.34382e-23)
(-2.26341 -0.00530115 0)
(-2.25846 -0.00779913 1.06794e-20)
(-2.25225 -0.0102746 0)
(-2.24476 -0.0127288 0)
(-2.236 -0.0151668 0)
(-2.22593 -0.0175869 0)
(-2.21454 -0.019996 7.93342e-21)
(-2.20181 -0.0223935 0)
(-2.18771 -0.0247813 6.81096e-21)
(-2.17223 -0.0271674 0)
(-2.15531 -0.0295495 0)
(-2.13696 -0.0319369 1.00715e-20)
(-2.11712 -0.034335 -8.86626e-21)
(-2.09578 -0.0367508 0)
(-2.07288 -0.0391856 0)
(-2.0484 -0.0416462 7.74675e-21)
(-2.02232 -0.0441346 -3.95562e-21)
(-1.99456 -0.0466581 0)
(-1.9651 -0.0492167 1.45112e-21)
(-1.93387 -0.0518118 -2.23027e-22)
(-1.90086 -0.0544371 -1.69511e-21)
(-1.86597 -0.0571009 1.24755e-21)
(-1.82916 -0.0597976 1.89794e-21)
(-1.79038 -0.062521 5.00117e-21)
(-1.74955 -0.0652757 0)
(-1.70664 -0.0680539 -1.15328e-20)
(-1.66155 -0.0708503 0)
(-1.61428 -0.0736653 0)
(-1.56473 -0.0764923 1.16247e-20)
(-1.51288 -0.079326 -1.30408e-20)
(-1.45866 -0.0821707 0)
(-1.40204 -0.0850251 1.5568e-20)
(-1.34292 -0.0879077 0)
(-1.28125 -0.0908405 0)
(-1.2169 -0.093886 1.90102e-20)
(-1.1498 -0.0971785 0)
(-1.08013 -0.100993 -6.47993e-23)
(-1.00941 -0.105469 0)
(-0.939499 -0.107169 2.39352e-20)
(-0.860829 -0.106116 -2.6278e-20)
(-0.7763 -0.109838 0)
(-0.694076 -0.11595 0)
(-0.608843 -0.117274 -3.18589e-20)
(-0.518584 -0.11956 3.38407e-20)
(-0.425876 -0.123184 0)
(-0.332333 -0.125855 0)
(-0.235359 -0.127455 7.91027e-20)
(-0.136085 -0.12985 4.14989e-20)
(-0.0352591 -0.131709 0)
(0.0679301 -0.1332 4.58213e-20)
(0.17317 -0.134332 1.11449e-22)
(0.280572 -0.135588 4.9996e-20)
(0.389062 -0.13683 5.19436e-20)
(0.498238 -0.137438 7.14505e-23)
(0.608039 -0.137357 0)
(0.718023 -0.136655 0)
(0.82801 -0.135562 -5.95718e-20)
(0.937018 -0.134592 0)
(1.04447 -0.132641 0)
(1.14964 -0.129671 1.29431e-19)
(1.25345 -0.125105 -1.33058e-19)
(1.35534 -0.120971 0)
(1.45415 -0.116461 0)
(1.55088 -0.112055 -7.12808e-20)
(1.64159 -0.109121 0)
(1.73363 -0.100337 0)
(1.81962 -0.100632 7.52585e-20)
(1.8998 -0.0935493 0)
(1.97961 -0.0865707 0)
(2.05199 -0.0799088 2.60989e-19)
(2.11691 -0.0733595 -8.39456e-20)
(2.1775 -0.0697002 -1.59664e-19)
(2.23302 -0.0637781 5.96661e-22)
(2.28474 -0.0565963 0)
(2.32902 -0.0472549 0)
(2.36547 -0.0335026 0)
(2.39268 -0.0140239 0)
(2.41118 0.0220211 0)
(-0.00174806 -0.0249768 2.68478e-19)
(-0.00978754 -0.015944 0)
(-0.0212572 0.00643666 0)
(-0.0339596 0.0267617 -4.62277e-20)
(-0.047395 0.0451807 0)
(-0.0615374 0.061709 0)
(-0.07643 0.0763406 1.5144e-20)
(-0.0921406 0.0891057 -2.83011e-20)
(-0.108735 0.100097 0)
(-0.126252 0.109462 0)
(-0.1447 0.117392 0)
(-0.16405 0.12409 2.39625e-20)
(-0.184247 0.129758 -1.16195e-20)
(-0.205222 0.134575 0)
(-0.226892 0.138691 -2.19402e-20)
(-0.249179 0.142228 0)
(-0.272008 0.145277 -2.07825e-20)
(-0.29531 0.147904 -4.05125e-20)
(-0.319027 0.150165 1.97485e-20)
(-0.343111 0.152101 0)
(-0.367523 0.153742 0)
(-0.392226 0.155119 -1.83734e-20)
(-0.417195 0.15626 0)
(-0.44241 0.157184 0)
(-0.467847 0.157915 -1.7189e-20)
(-0.493496 0.158479 0)
(-0.519345 0.158892 3.29885e-20)
(-0.54538 0.159177 0)
(-0.571597 0.159348 0)
(-0.597985 0.159421 9.90196e-24)
(-0.624544 0.159411 0)
(-0.651265 0.159332 -1.50012e-20)
(-0.678144 0.159194 0)
(-0.705185 0.159005 -1.4504e-20)
(-0.732379 0.158775 0)
(-0.759725 0.158504 1.40234e-20)
(-0.787221 0.158198 0)
(-0.814864 0.157861 0)
(-0.842656 0.157491 0)
(-0.870589 0.15709 0)
(-0.898663 0.156655 1.29963e-20)
(-0.926872 0.156187 -1.27971e-20)
(-0.955214 0.15568 0)
(-0.983682 0.155135 1.2438e-20)
(-1.01227 0.154546 1.22658e-20)
(-1.04097 0.153911 2.42082e-20)
(-1.06977 0.153228 1.19356e-20)
(-1.09866 0.152494 1.17772e-20)
(-1.12763 0.151702 0)
(-1.15667 0.150848 0)
(-1.18576 0.149929 -1.13144e-20)
(-1.21489 0.148941 0)
(-1.24405 0.147879 -1.10581e-20)
(-1.27322 0.146743 0)
(-1.3024 0.145531 3.23681e-20)
(-1.33155 0.144245 1.0672e-20)
(-1.36065 0.142885 0)
(-1.38968 0.141447 0)
(-1.41861 0.139927 -2.06107e-20)
(-1.44741 0.138311 0)
(-1.47605 0.136582 2.01596e-20)
(-1.50452 0.134724 0)
(-1.53278 0.132726 0)
(-1.5608 0.130589 -1.95293e-20)
(-1.58856 0.12832 0)
(-1.616 0.125942 1.91004e-20)
(-1.64308 0.123466 0)
(-1.66971 0.120896 1.87232e-20)
(-1.69584 0.118221 0)
(-1.72144 0.115417 0)
(-1.74649 0.112443 0)